[3394385 ## mn110: 28740 ## 2022-02-16/00:35:23] after query job cnodelist from db, use-time 0.20 secs.
[3394385 ## mn110: 28740 ## 2022-02-16/00:35:23] cnodenum= 1024, job-resource-list: 32256-33023,33280-33535[mpemap:0xf][spemap:0x00000000000000000000000000000000FFFFFFFFFFFFFFFFFFFFFFFFFFFFFFFFFFFFFFFFFFFFFFFFFFFFFFFFFFFFFFFF]
[3394385 ## mn110: 28740 ## 2022-02-16/00:35:23] control node is: mn110.
[3394385 ## mn110: 28740 ## 2022-02-16/00:35:23] sub control node number is 4, list: mn[237,245,253,261].
[3394385 ## mn110: 28740 ## 2022-02-16/00:35:23] after gather all tasks. use-time: 0.37 secs.
[3394385 ## mn110: 28740 ## 2022-02-16/00:35:23] after put tasks info to db, use-time 0.07 secs.
[3394385 ## mn110: 28740 ## 2022-02-16/00:35:23] start job ok, cnodenum=1024, total use-time=0.80 secs!
[3394385 ## vn032256: 2135 ## 2022-02-16/00:35:25] job's first task will run: /usr/bin/swrun -b 1 -K 1324 -T 50 -s 14600 -m 1 -c 0 -t 15 -j 3394385 -F 0xFFFFFFFFFFFFFFFF -i ./aims.191127.scalapack.mpi.x 
------------------------------------------------------------
          Invoking FHI-aims ...
          Version 191127
          Git rev. (modified): 7bcdabb shanghui remove some print.
          Compiled on 2021/12/07 at 19:24:24 on host psn02.qd.sw.

          When using FHI-aims, please cite the following reference:

          Volker Blum, Ralf Gehrke, Felix Hanke, Paula Havu,
          Ville Havu, Xinguo Ren, Karsten Reuter, and Matthias Scheffler,
          'Ab Initio Molecular Simulations with Numeric Atom-Centered Orbitals',
          Computer Physics Communications 180, 2175-2196 (2009)

          For any questions about FHI-aims, please visit the aimsclub website
          with its forums and wiki. Contributions to both the forums and the
          wiki are warmly encouraged - they are for you, and everyone is welcome there.

------------------------------------------------------------



  Date     :  20220216, Time     :  003533.628
  Time zero on CPU 1             :   0.114000000000000E+01  s.
  Internal wall clock time zero  :           414203733.628  s.

  FHI-aims created a unique identifier for this run for later identification
  aims_uuid : C47C116A-F2BD-47BD-AAAB-84B456C83588

  Using     4096 parallel tasks.
  Task        0 on host vn032256 reporting.
  Task        1 on host vn032256 reporting.
  Task        2 on host vn032256 reporting.
  Task        3 on host vn032256 reporting.
  Task        4 on host vn032257 reporting.
  Task        5 on host vn032257 reporting.
  Task        6 on host vn032257 reporting.
  Task        7 on host vn032257 reporting.
  Task        8 on host vn032258 reporting.
  Task        9 on host vn032258 reporting.
  Task       10 on host vn032258 reporting.
  Task       11 on host vn032258 reporting.
  Task       12 on host vn032259 reporting.
  Task       13 on host vn032259 reporting.
  Task       14 on host vn032259 reporting.
  Task       15 on host vn032259 reporting.
  Task       16 on host vn032260 reporting.
  Task       17 on host vn032260 reporting.
  Task       18 on host vn032260 reporting.
  Task       19 on host vn032260 reporting.
  Task       20 on host vn032261 reporting.
  Task       21 on host vn032261 reporting.
  Task       22 on host vn032261 reporting.
  Task       23 on host vn032261 reporting.
  Task       24 on host vn032262 reporting.
  Task       25 on host vn032262 reporting.
  Task       26 on host vn032262 reporting.
  Task       27 on host vn032262 reporting.
  Task       28 on host vn032263 reporting.
  Task       29 on host vn032263 reporting.
  Task       30 on host vn032263 reporting.
  Task       31 on host vn032263 reporting.
  Task       32 on host vn032264 reporting.
  Task       33 on host vn032264 reporting.
  Task       34 on host vn032264 reporting.
  Task       35 on host vn032264 reporting.
  Task       36 on host vn032265 reporting.
  Task       37 on host vn032265 reporting.
  Task       38 on host vn032265 reporting.
  Task       39 on host vn032265 reporting.
  Task       40 on host vn032266 reporting.
  Task       41 on host vn032266 reporting.
  Task       42 on host vn032266 reporting.
  Task       43 on host vn032266 reporting.
  Task       44 on host vn032267 reporting.
  Task       45 on host vn032267 reporting.
  Task       46 on host vn032267 reporting.
  Task       47 on host vn032267 reporting.
  Task       48 on host vn032268 reporting.
  Task       49 on host vn032268 reporting.
  Task       50 on host vn032268 reporting.
  Task       51 on host vn032268 reporting.
  Task       52 on host vn032269 reporting.
  Task       53 on host vn032269 reporting.
  Task       54 on host vn032269 reporting.
  Task       55 on host vn032269 reporting.
  Task       56 on host vn032270 reporting.
  Task       57 on host vn032270 reporting.
  Task       58 on host vn032270 reporting.
  Task       59 on host vn032270 reporting.
  Task       60 on host vn032271 reporting.
  Task       61 on host vn032271 reporting.
  Task       62 on host vn032271 reporting.
  Task       63 on host vn032271 reporting.
  Task       64 on host vn032272 reporting.
  Task       65 on host vn032272 reporting.
  Task       66 on host vn032272 reporting.
  Task       67 on host vn032272 reporting.
  Task       68 on host vn032273 reporting.
  Task       69 on host vn032273 reporting.
  Task       70 on host vn032273 reporting.
  Task       71 on host vn032273 reporting.
  Task       72 on host vn032274 reporting.
  Task       73 on host vn032274 reporting.
  Task       74 on host vn032274 reporting.
  Task       75 on host vn032274 reporting.
  Task       76 on host vn032275 reporting.
  Task       77 on host vn032275 reporting.
  Task       78 on host vn032275 reporting.
  Task       79 on host vn032275 reporting.
  Task       80 on host vn032276 reporting.
  Task       81 on host vn032276 reporting.
  Task       82 on host vn032276 reporting.
  Task       83 on host vn032276 reporting.
  Task       84 on host vn032277 reporting.
  Task       85 on host vn032277 reporting.
  Task       86 on host vn032277 reporting.
  Task       87 on host vn032277 reporting.
  Task       88 on host vn032278 reporting.
  Task       89 on host vn032278 reporting.
  Task       90 on host vn032278 reporting.
  Task       91 on host vn032278 reporting.
  Task       92 on host vn032279 reporting.
  Task       93 on host vn032279 reporting.
  Task       94 on host vn032279 reporting.
  Task       95 on host vn032279 reporting.
  Task       96 on host vn032280 reporting.
  Task       97 on host vn032280 reporting.
  Task       98 on host vn032280 reporting.
  Task       99 on host vn032280 reporting.
  Task      100 on host vn032281 reporting.
  Task      101 on host vn032281 reporting.
  Task      102 on host vn032281 reporting.
  Task      103 on host vn032281 reporting.
  Task      104 on host vn032282 reporting.
  Task      105 on host vn032282 reporting.
  Task      106 on host vn032282 reporting.
  Task      107 on host vn032282 reporting.
  Task      108 on host vn032283 reporting.
  Task      109 on host vn032283 reporting.
  Task      110 on host vn032283 reporting.
  Task      111 on host vn032283 reporting.
  Task      112 on host vn032284 reporting.
  Task      113 on host vn032284 reporting.
  Task      114 on host vn032284 reporting.
  Task      115 on host vn032284 reporting.
  Task      116 on host vn032285 reporting.
  Task      117 on host vn032285 reporting.
  Task      118 on host vn032285 reporting.
  Task      119 on host vn032285 reporting.
  Task      120 on host vn032286 reporting.
  Task      121 on host vn032286 reporting.
  Task      122 on host vn032286 reporting.
  Task      123 on host vn032286 reporting.
  Task      124 on host vn032287 reporting.
  Task      125 on host vn032287 reporting.
  Task      126 on host vn032287 reporting.
  Task      127 on host vn032287 reporting.
  Task      128 on host vn032288 reporting.
  Task      129 on host vn032288 reporting.
  Task      130 on host vn032288 reporting.
  Task      131 on host vn032288 reporting.
  Task      132 on host vn032289 reporting.
  Task      133 on host vn032289 reporting.
  Task      134 on host vn032289 reporting.
  Task      135 on host vn032289 reporting.
  Task      136 on host vn032290 reporting.
  Task      137 on host vn032290 reporting.
  Task      138 on host vn032290 reporting.
  Task      139 on host vn032290 reporting.
  Task      140 on host vn032291 reporting.
  Task      141 on host vn032291 reporting.
  Task      142 on host vn032291 reporting.
  Task      143 on host vn032291 reporting.
  Task      144 on host vn032292 reporting.
  Task      145 on host vn032292 reporting.
  Task      146 on host vn032292 reporting.
  Task      147 on host vn032292 reporting.
  Task      148 on host vn032293 reporting.
  Task      149 on host vn032293 reporting.
  Task      150 on host vn032293 reporting.
  Task      151 on host vn032293 reporting.
  Task      152 on host vn032294 reporting.
  Task      153 on host vn032294 reporting.
  Task      154 on host vn032294 reporting.
  Task      155 on host vn032294 reporting.
  Task      156 on host vn032295 reporting.
  Task      157 on host vn032295 reporting.
  Task      158 on host vn032295 reporting.
  Task      159 on host vn032295 reporting.
  Task      160 on host vn032296 reporting.
  Task      161 on host vn032296 reporting.
  Task      162 on host vn032296 reporting.
  Task      163 on host vn032296 reporting.
  Task      164 on host vn032297 reporting.
  Task      165 on host vn032297 reporting.
  Task      166 on host vn032297 reporting.
  Task      167 on host vn032297 reporting.
  Task      168 on host vn032298 reporting.
  Task      169 on host vn032298 reporting.
  Task      170 on host vn032298 reporting.
  Task      171 on host vn032298 reporting.
  Task      172 on host vn032299 reporting.
  Task      173 on host vn032299 reporting.
  Task      174 on host vn032299 reporting.
  Task      175 on host vn032299 reporting.
  Task      176 on host vn032300 reporting.
  Task      177 on host vn032300 reporting.
  Task      178 on host vn032300 reporting.
  Task      179 on host vn032300 reporting.
  Task      180 on host vn032301 reporting.
  Task      181 on host vn032301 reporting.
  Task      182 on host vn032301 reporting.
  Task      183 on host vn032301 reporting.
  Task      184 on host vn032302 reporting.
  Task      185 on host vn032302 reporting.
  Task      186 on host vn032302 reporting.
  Task      187 on host vn032302 reporting.
  Task      188 on host vn032303 reporting.
  Task      189 on host vn032303 reporting.
  Task      190 on host vn032303 reporting.
  Task      191 on host vn032303 reporting.
  Task      192 on host vn032304 reporting.
  Task      193 on host vn032304 reporting.
  Task      194 on host vn032304 reporting.
  Task      195 on host vn032304 reporting.
  Task      196 on host vn032305 reporting.
  Task      197 on host vn032305 reporting.
  Task      198 on host vn032305 reporting.
  Task      199 on host vn032305 reporting.
  Task      200 on host vn032306 reporting.
  Task      201 on host vn032306 reporting.
  Task      202 on host vn032306 reporting.
  Task      203 on host vn032306 reporting.
  Task      204 on host vn032307 reporting.
  Task      205 on host vn032307 reporting.
  Task      206 on host vn032307 reporting.
  Task      207 on host vn032307 reporting.
  Task      208 on host vn032308 reporting.
  Task      209 on host vn032308 reporting.
  Task      210 on host vn032308 reporting.
  Task      211 on host vn032308 reporting.
  Task      212 on host vn032309 reporting.
  Task      213 on host vn032309 reporting.
  Task      214 on host vn032309 reporting.
  Task      215 on host vn032309 reporting.
  Task      216 on host vn032310 reporting.
  Task      217 on host vn032310 reporting.
  Task      218 on host vn032310 reporting.
  Task      219 on host vn032310 reporting.
  Task      220 on host vn032311 reporting.
  Task      221 on host vn032311 reporting.
  Task      222 on host vn032311 reporting.
  Task      223 on host vn032311 reporting.
  Task      224 on host vn032312 reporting.
  Task      225 on host vn032312 reporting.
  Task      226 on host vn032312 reporting.
  Task      227 on host vn032312 reporting.
  Task      228 on host vn032313 reporting.
  Task      229 on host vn032313 reporting.
  Task      230 on host vn032313 reporting.
  Task      231 on host vn032313 reporting.
  Task      232 on host vn032314 reporting.
  Task      233 on host vn032314 reporting.
  Task      234 on host vn032314 reporting.
  Task      235 on host vn032314 reporting.
  Task      236 on host vn032315 reporting.
  Task      237 on host vn032315 reporting.
  Task      238 on host vn032315 reporting.
  Task      239 on host vn032315 reporting.
  Task      240 on host vn032316 reporting.
  Task      241 on host vn032316 reporting.
  Task      242 on host vn032316 reporting.
  Task      243 on host vn032316 reporting.
  Task      244 on host vn032317 reporting.
  Task      245 on host vn032317 reporting.
  Task      246 on host vn032317 reporting.
  Task      247 on host vn032317 reporting.
  Task      248 on host vn032318 reporting.
  Task      249 on host vn032318 reporting.
  Task      250 on host vn032318 reporting.
  Task      251 on host vn032318 reporting.
  Task      252 on host vn032319 reporting.
  Task      253 on host vn032319 reporting.
  Task      254 on host vn032319 reporting.
  Task      255 on host vn032319 reporting.
  Task      256 on host vn032320 reporting.
  Task      257 on host vn032320 reporting.
  Task      258 on host vn032320 reporting.
  Task      259 on host vn032320 reporting.
  Task      260 on host vn032321 reporting.
  Task      261 on host vn032321 reporting.
  Task      262 on host vn032321 reporting.
  Task      263 on host vn032321 reporting.
  Task      264 on host vn032322 reporting.
  Task      265 on host vn032322 reporting.
  Task      266 on host vn032322 reporting.
  Task      267 on host vn032322 reporting.
  Task      268 on host vn032323 reporting.
  Task      269 on host vn032323 reporting.
  Task      270 on host vn032323 reporting.
  Task      271 on host vn032323 reporting.
  Task      272 on host vn032324 reporting.
  Task      273 on host vn032324 reporting.
  Task      274 on host vn032324 reporting.
  Task      275 on host vn032324 reporting.
  Task      276 on host vn032325 reporting.
  Task      277 on host vn032325 reporting.
  Task      278 on host vn032325 reporting.
  Task      279 on host vn032325 reporting.
  Task      280 on host vn032326 reporting.
  Task      281 on host vn032326 reporting.
  Task      282 on host vn032326 reporting.
  Task      283 on host vn032326 reporting.
  Task      284 on host vn032327 reporting.
  Task      285 on host vn032327 reporting.
  Task      286 on host vn032327 reporting.
  Task      287 on host vn032327 reporting.
  Task      288 on host vn032328 reporting.
  Task      289 on host vn032328 reporting.
  Task      290 on host vn032328 reporting.
  Task      291 on host vn032328 reporting.
  Task      292 on host vn032329 reporting.
  Task      293 on host vn032329 reporting.
  Task      294 on host vn032329 reporting.
  Task      295 on host vn032329 reporting.
  Task      296 on host vn032330 reporting.
  Task      297 on host vn032330 reporting.
  Task      298 on host vn032330 reporting.
  Task      299 on host vn032330 reporting.
  Task      300 on host vn032331 reporting.
  Task      301 on host vn032331 reporting.
  Task      302 on host vn032331 reporting.
  Task      303 on host vn032331 reporting.
  Task      304 on host vn032332 reporting.
  Task      305 on host vn032332 reporting.
  Task      306 on host vn032332 reporting.
  Task      307 on host vn032332 reporting.
  Task      308 on host vn032333 reporting.
  Task      309 on host vn032333 reporting.
  Task      310 on host vn032333 reporting.
  Task      311 on host vn032333 reporting.
  Task      312 on host vn032334 reporting.
  Task      313 on host vn032334 reporting.
  Task      314 on host vn032334 reporting.
  Task      315 on host vn032334 reporting.
  Task      316 on host vn032335 reporting.
  Task      317 on host vn032335 reporting.
  Task      318 on host vn032335 reporting.
  Task      319 on host vn032335 reporting.
  Task      320 on host vn032336 reporting.
  Task      321 on host vn032336 reporting.
  Task      322 on host vn032336 reporting.
  Task      323 on host vn032336 reporting.
  Task      324 on host vn032337 reporting.
  Task      325 on host vn032337 reporting.
  Task      326 on host vn032337 reporting.
  Task      327 on host vn032337 reporting.
  Task      328 on host vn032338 reporting.
  Task      329 on host vn032338 reporting.
  Task      330 on host vn032338 reporting.
  Task      331 on host vn032338 reporting.
  Task      332 on host vn032339 reporting.
  Task      333 on host vn032339 reporting.
  Task      334 on host vn032339 reporting.
  Task      335 on host vn032339 reporting.
  Task      336 on host vn032340 reporting.
  Task      337 on host vn032340 reporting.
  Task      338 on host vn032340 reporting.
  Task      339 on host vn032340 reporting.
  Task      340 on host vn032341 reporting.
  Task      341 on host vn032341 reporting.
  Task      342 on host vn032341 reporting.
  Task      343 on host vn032341 reporting.
  Task      344 on host vn032342 reporting.
  Task      345 on host vn032342 reporting.
  Task      346 on host vn032342 reporting.
  Task      347 on host vn032342 reporting.
  Task      348 on host vn032343 reporting.
  Task      349 on host vn032343 reporting.
  Task      350 on host vn032343 reporting.
  Task      351 on host vn032343 reporting.
  Task      352 on host vn032344 reporting.
  Task      353 on host vn032344 reporting.
  Task      354 on host vn032344 reporting.
  Task      355 on host vn032344 reporting.
  Task      356 on host vn032345 reporting.
  Task      357 on host vn032345 reporting.
  Task      358 on host vn032345 reporting.
  Task      359 on host vn032345 reporting.
  Task      360 on host vn032346 reporting.
  Task      361 on host vn032346 reporting.
  Task      362 on host vn032346 reporting.
  Task      363 on host vn032346 reporting.
  Task      364 on host vn032347 reporting.
  Task      365 on host vn032347 reporting.
  Task      366 on host vn032347 reporting.
  Task      367 on host vn032347 reporting.
  Task      368 on host vn032348 reporting.
  Task      369 on host vn032348 reporting.
  Task      370 on host vn032348 reporting.
  Task      371 on host vn032348 reporting.
  Task      372 on host vn032349 reporting.
  Task      373 on host vn032349 reporting.
  Task      374 on host vn032349 reporting.
  Task      375 on host vn032349 reporting.
  Task      376 on host vn032350 reporting.
  Task      377 on host vn032350 reporting.
  Task      378 on host vn032350 reporting.
  Task      379 on host vn032350 reporting.
  Task      380 on host vn032351 reporting.
  Task      381 on host vn032351 reporting.
  Task      382 on host vn032351 reporting.
  Task      383 on host vn032351 reporting.
  Task      384 on host vn032352 reporting.
  Task      385 on host vn032352 reporting.
  Task      386 on host vn032352 reporting.
  Task      387 on host vn032352 reporting.
  Task      388 on host vn032353 reporting.
  Task      389 on host vn032353 reporting.
  Task      390 on host vn032353 reporting.
  Task      391 on host vn032353 reporting.
  Task      392 on host vn032354 reporting.
  Task      393 on host vn032354 reporting.
  Task      394 on host vn032354 reporting.
  Task      395 on host vn032354 reporting.
  Task      396 on host vn032355 reporting.
  Task      397 on host vn032355 reporting.
  Task      398 on host vn032355 reporting.
  Task      399 on host vn032355 reporting.
  Task      400 on host vn032356 reporting.
  Task      401 on host vn032356 reporting.
  Task      402 on host vn032356 reporting.
  Task      403 on host vn032356 reporting.
  Task      404 on host vn032357 reporting.
  Task      405 on host vn032357 reporting.
  Task      406 on host vn032357 reporting.
  Task      407 on host vn032357 reporting.
  Task      408 on host vn032358 reporting.
  Task      409 on host vn032358 reporting.
  Task      410 on host vn032358 reporting.
  Task      411 on host vn032358 reporting.
  Task      412 on host vn032359 reporting.
  Task      413 on host vn032359 reporting.
  Task      414 on host vn032359 reporting.
  Task      415 on host vn032359 reporting.
  Task      416 on host vn032360 reporting.
  Task      417 on host vn032360 reporting.
  Task      418 on host vn032360 reporting.
  Task      419 on host vn032360 reporting.
  Task      420 on host vn032361 reporting.
  Task      421 on host vn032361 reporting.
  Task      422 on host vn032361 reporting.
  Task      423 on host vn032361 reporting.
  Task      424 on host vn032362 reporting.
  Task      425 on host vn032362 reporting.
  Task      426 on host vn032362 reporting.
  Task      427 on host vn032362 reporting.
  Task      428 on host vn032363 reporting.
  Task      429 on host vn032363 reporting.
  Task      430 on host vn032363 reporting.
  Task      431 on host vn032363 reporting.
  Task      432 on host vn032364 reporting.
  Task      433 on host vn032364 reporting.
  Task      434 on host vn032364 reporting.
  Task      435 on host vn032364 reporting.
  Task      436 on host vn032365 reporting.
  Task      437 on host vn032365 reporting.
  Task      438 on host vn032365 reporting.
  Task      439 on host vn032365 reporting.
  Task      440 on host vn032366 reporting.
  Task      441 on host vn032366 reporting.
  Task      442 on host vn032366 reporting.
  Task      443 on host vn032366 reporting.
  Task      444 on host vn032367 reporting.
  Task      445 on host vn032367 reporting.
  Task      446 on host vn032367 reporting.
  Task      447 on host vn032367 reporting.
  Task      448 on host vn032368 reporting.
  Task      449 on host vn032368 reporting.
  Task      450 on host vn032368 reporting.
  Task      451 on host vn032368 reporting.
  Task      452 on host vn032369 reporting.
  Task      453 on host vn032369 reporting.
  Task      454 on host vn032369 reporting.
  Task      455 on host vn032369 reporting.
  Task      456 on host vn032370 reporting.
  Task      457 on host vn032370 reporting.
  Task      458 on host vn032370 reporting.
  Task      459 on host vn032370 reporting.
  Task      460 on host vn032371 reporting.
  Task      461 on host vn032371 reporting.
  Task      462 on host vn032371 reporting.
  Task      463 on host vn032371 reporting.
  Task      464 on host vn032372 reporting.
  Task      465 on host vn032372 reporting.
  Task      466 on host vn032372 reporting.
  Task      467 on host vn032372 reporting.
  Task      468 on host vn032373 reporting.
  Task      469 on host vn032373 reporting.
  Task      470 on host vn032373 reporting.
  Task      471 on host vn032373 reporting.
  Task      472 on host vn032374 reporting.
  Task      473 on host vn032374 reporting.
  Task      474 on host vn032374 reporting.
  Task      475 on host vn032374 reporting.
  Task      476 on host vn032375 reporting.
  Task      477 on host vn032375 reporting.
  Task      478 on host vn032375 reporting.
  Task      479 on host vn032375 reporting.
  Task      480 on host vn032376 reporting.
  Task      481 on host vn032376 reporting.
  Task      482 on host vn032376 reporting.
  Task      483 on host vn032376 reporting.
  Task      484 on host vn032377 reporting.
  Task      485 on host vn032377 reporting.
  Task      486 on host vn032377 reporting.
  Task      487 on host vn032377 reporting.
  Task      488 on host vn032378 reporting.
  Task      489 on host vn032378 reporting.
  Task      490 on host vn032378 reporting.
  Task      491 on host vn032378 reporting.
  Task      492 on host vn032379 reporting.
  Task      493 on host vn032379 reporting.
  Task      494 on host vn032379 reporting.
  Task      495 on host vn032379 reporting.
  Task      496 on host vn032380 reporting.
  Task      497 on host vn032380 reporting.
  Task      498 on host vn032380 reporting.
  Task      499 on host vn032380 reporting.
  Task      500 on host vn032381 reporting.
  Task      501 on host vn032381 reporting.
  Task      502 on host vn032381 reporting.
  Task      503 on host vn032381 reporting.
  Task      504 on host vn032382 reporting.
  Task      505 on host vn032382 reporting.
  Task      506 on host vn032382 reporting.
  Task      507 on host vn032382 reporting.
  Task      508 on host vn032383 reporting.
  Task      509 on host vn032383 reporting.
  Task      510 on host vn032383 reporting.
  Task      511 on host vn032383 reporting.
  Task      512 on host vn032384 reporting.
  Task      513 on host vn032384 reporting.
  Task      514 on host vn032384 reporting.
  Task      515 on host vn032384 reporting.
  Task      516 on host vn032385 reporting.
  Task      517 on host vn032385 reporting.
  Task      518 on host vn032385 reporting.
  Task      519 on host vn032385 reporting.
  Task      520 on host vn032386 reporting.
  Task      521 on host vn032386 reporting.
  Task      522 on host vn032386 reporting.
  Task      523 on host vn032386 reporting.
  Task      524 on host vn032387 reporting.
  Task      525 on host vn032387 reporting.
  Task      526 on host vn032387 reporting.
  Task      527 on host vn032387 reporting.
  Task      528 on host vn032388 reporting.
  Task      529 on host vn032388 reporting.
  Task      530 on host vn032388 reporting.
  Task      531 on host vn032388 reporting.
  Task      532 on host vn032389 reporting.
  Task      533 on host vn032389 reporting.
  Task      534 on host vn032389 reporting.
  Task      535 on host vn032389 reporting.
  Task      536 on host vn032390 reporting.
  Task      537 on host vn032390 reporting.
  Task      538 on host vn032390 reporting.
  Task      539 on host vn032390 reporting.
  Task      540 on host vn032391 reporting.
  Task      541 on host vn032391 reporting.
  Task      542 on host vn032391 reporting.
  Task      543 on host vn032391 reporting.
  Task      544 on host vn032392 reporting.
  Task      545 on host vn032392 reporting.
  Task      546 on host vn032392 reporting.
  Task      547 on host vn032392 reporting.
  Task      548 on host vn032393 reporting.
  Task      549 on host vn032393 reporting.
  Task      550 on host vn032393 reporting.
  Task      551 on host vn032393 reporting.
  Task      552 on host vn032394 reporting.
  Task      553 on host vn032394 reporting.
  Task      554 on host vn032394 reporting.
  Task      555 on host vn032394 reporting.
  Task      556 on host vn032395 reporting.
  Task      557 on host vn032395 reporting.
  Task      558 on host vn032395 reporting.
  Task      559 on host vn032395 reporting.
  Task      560 on host vn032396 reporting.
  Task      561 on host vn032396 reporting.
  Task      562 on host vn032396 reporting.
  Task      563 on host vn032396 reporting.
  Task      564 on host vn032397 reporting.
  Task      565 on host vn032397 reporting.
  Task      566 on host vn032397 reporting.
  Task      567 on host vn032397 reporting.
  Task      568 on host vn032398 reporting.
  Task      569 on host vn032398 reporting.
  Task      570 on host vn032398 reporting.
  Task      571 on host vn032398 reporting.
  Task      572 on host vn032399 reporting.
  Task      573 on host vn032399 reporting.
  Task      574 on host vn032399 reporting.
  Task      575 on host vn032399 reporting.
  Task      576 on host vn032400 reporting.
  Task      577 on host vn032400 reporting.
  Task      578 on host vn032400 reporting.
  Task      579 on host vn032400 reporting.
  Task      580 on host vn032401 reporting.
  Task      581 on host vn032401 reporting.
  Task      582 on host vn032401 reporting.
  Task      583 on host vn032401 reporting.
  Task      584 on host vn032402 reporting.
  Task      585 on host vn032402 reporting.
  Task      586 on host vn032402 reporting.
  Task      587 on host vn032402 reporting.
  Task      588 on host vn032403 reporting.
  Task      589 on host vn032403 reporting.
  Task      590 on host vn032403 reporting.
  Task      591 on host vn032403 reporting.
  Task      592 on host vn032404 reporting.
  Task      593 on host vn032404 reporting.
  Task      594 on host vn032404 reporting.
  Task      595 on host vn032404 reporting.
  Task      596 on host vn032405 reporting.
  Task      597 on host vn032405 reporting.
  Task      598 on host vn032405 reporting.
  Task      599 on host vn032405 reporting.
  Task      600 on host vn032406 reporting.
  Task      601 on host vn032406 reporting.
  Task      602 on host vn032406 reporting.
  Task      603 on host vn032406 reporting.
  Task      604 on host vn032407 reporting.
  Task      605 on host vn032407 reporting.
  Task      606 on host vn032407 reporting.
  Task      607 on host vn032407 reporting.
  Task      608 on host vn032408 reporting.
  Task      609 on host vn032408 reporting.
  Task      610 on host vn032408 reporting.
  Task      611 on host vn032408 reporting.
  Task      612 on host vn032409 reporting.
  Task      613 on host vn032409 reporting.
  Task      614 on host vn032409 reporting.
  Task      615 on host vn032409 reporting.
  Task      616 on host vn032410 reporting.
  Task      617 on host vn032410 reporting.
  Task      618 on host vn032410 reporting.
  Task      619 on host vn032410 reporting.
  Task      620 on host vn032411 reporting.
  Task      621 on host vn032411 reporting.
  Task      622 on host vn032411 reporting.
  Task      623 on host vn032411 reporting.
  Task      624 on host vn032412 reporting.
  Task      625 on host vn032412 reporting.
  Task      626 on host vn032412 reporting.
  Task      627 on host vn032412 reporting.
  Task      628 on host vn032413 reporting.
  Task      629 on host vn032413 reporting.
  Task      630 on host vn032413 reporting.
  Task      631 on host vn032413 reporting.
  Task      632 on host vn032414 reporting.
  Task      633 on host vn032414 reporting.
  Task      634 on host vn032414 reporting.
  Task      635 on host vn032414 reporting.
  Task      636 on host vn032415 reporting.
  Task      637 on host vn032415 reporting.
  Task      638 on host vn032415 reporting.
  Task      639 on host vn032415 reporting.
  Task      640 on host vn032416 reporting.
  Task      641 on host vn032416 reporting.
  Task      642 on host vn032416 reporting.
  Task      643 on host vn032416 reporting.
  Task      644 on host vn032417 reporting.
  Task      645 on host vn032417 reporting.
  Task      646 on host vn032417 reporting.
  Task      647 on host vn032417 reporting.
  Task      648 on host vn032418 reporting.
  Task      649 on host vn032418 reporting.
  Task      650 on host vn032418 reporting.
  Task      651 on host vn032418 reporting.
  Task      652 on host vn032419 reporting.
  Task      653 on host vn032419 reporting.
  Task      654 on host vn032419 reporting.
  Task      655 on host vn032419 reporting.
  Task      656 on host vn032420 reporting.
  Task      657 on host vn032420 reporting.
  Task      658 on host vn032420 reporting.
  Task      659 on host vn032420 reporting.
  Task      660 on host vn032421 reporting.
  Task      661 on host vn032421 reporting.
  Task      662 on host vn032421 reporting.
  Task      663 on host vn032421 reporting.
  Task      664 on host vn032422 reporting.
  Task      665 on host vn032422 reporting.
  Task      666 on host vn032422 reporting.
  Task      667 on host vn032422 reporting.
  Task      668 on host vn032423 reporting.
  Task      669 on host vn032423 reporting.
  Task      670 on host vn032423 reporting.
  Task      671 on host vn032423 reporting.
  Task      672 on host vn032424 reporting.
  Task      673 on host vn032424 reporting.
  Task      674 on host vn032424 reporting.
  Task      675 on host vn032424 reporting.
  Task      676 on host vn032425 reporting.
  Task      677 on host vn032425 reporting.
  Task      678 on host vn032425 reporting.
  Task      679 on host vn032425 reporting.
  Task      680 on host vn032426 reporting.
  Task      681 on host vn032426 reporting.
  Task      682 on host vn032426 reporting.
  Task      683 on host vn032426 reporting.
  Task      684 on host vn032427 reporting.
  Task      685 on host vn032427 reporting.
  Task      686 on host vn032427 reporting.
  Task      687 on host vn032427 reporting.
  Task      688 on host vn032428 reporting.
  Task      689 on host vn032428 reporting.
  Task      690 on host vn032428 reporting.
  Task      691 on host vn032428 reporting.
  Task      692 on host vn032429 reporting.
  Task      693 on host vn032429 reporting.
  Task      694 on host vn032429 reporting.
  Task      695 on host vn032429 reporting.
  Task      696 on host vn032430 reporting.
  Task      697 on host vn032430 reporting.
  Task      698 on host vn032430 reporting.
  Task      699 on host vn032430 reporting.
  Task      700 on host vn032431 reporting.
  Task      701 on host vn032431 reporting.
  Task      702 on host vn032431 reporting.
  Task      703 on host vn032431 reporting.
  Task      704 on host vn032432 reporting.
  Task      705 on host vn032432 reporting.
  Task      706 on host vn032432 reporting.
  Task      707 on host vn032432 reporting.
  Task      708 on host vn032433 reporting.
  Task      709 on host vn032433 reporting.
  Task      710 on host vn032433 reporting.
  Task      711 on host vn032433 reporting.
  Task      712 on host vn032434 reporting.
  Task      713 on host vn032434 reporting.
  Task      714 on host vn032434 reporting.
  Task      715 on host vn032434 reporting.
  Task      716 on host vn032435 reporting.
  Task      717 on host vn032435 reporting.
  Task      718 on host vn032435 reporting.
  Task      719 on host vn032435 reporting.
  Task      720 on host vn032436 reporting.
  Task      721 on host vn032436 reporting.
  Task      722 on host vn032436 reporting.
  Task      723 on host vn032436 reporting.
  Task      724 on host vn032437 reporting.
  Task      725 on host vn032437 reporting.
  Task      726 on host vn032437 reporting.
  Task      727 on host vn032437 reporting.
  Task      728 on host vn032438 reporting.
  Task      729 on host vn032438 reporting.
  Task      730 on host vn032438 reporting.
  Task      731 on host vn032438 reporting.
  Task      732 on host vn032439 reporting.
  Task      733 on host vn032439 reporting.
  Task      734 on host vn032439 reporting.
  Task      735 on host vn032439 reporting.
  Task      736 on host vn032440 reporting.
  Task      737 on host vn032440 reporting.
  Task      738 on host vn032440 reporting.
  Task      739 on host vn032440 reporting.
  Task      740 on host vn032441 reporting.
  Task      741 on host vn032441 reporting.
  Task      742 on host vn032441 reporting.
  Task      743 on host vn032441 reporting.
  Task      744 on host vn032442 reporting.
  Task      745 on host vn032442 reporting.
  Task      746 on host vn032442 reporting.
  Task      747 on host vn032442 reporting.
  Task      748 on host vn032443 reporting.
  Task      749 on host vn032443 reporting.
  Task      750 on host vn032443 reporting.
  Task      751 on host vn032443 reporting.
  Task      752 on host vn032444 reporting.
  Task      753 on host vn032444 reporting.
  Task      754 on host vn032444 reporting.
  Task      755 on host vn032444 reporting.
  Task      756 on host vn032445 reporting.
  Task      757 on host vn032445 reporting.
  Task      758 on host vn032445 reporting.
  Task      759 on host vn032445 reporting.
  Task      760 on host vn032446 reporting.
  Task      761 on host vn032446 reporting.
  Task      762 on host vn032446 reporting.
  Task      763 on host vn032446 reporting.
  Task      764 on host vn032447 reporting.
  Task      765 on host vn032447 reporting.
  Task      766 on host vn032447 reporting.
  Task      767 on host vn032447 reporting.
  Task      768 on host vn032448 reporting.
  Task      769 on host vn032448 reporting.
  Task      770 on host vn032448 reporting.
  Task      771 on host vn032448 reporting.
  Task      772 on host vn032449 reporting.
  Task      773 on host vn032449 reporting.
  Task      774 on host vn032449 reporting.
  Task      775 on host vn032449 reporting.
  Task      776 on host vn032450 reporting.
  Task      777 on host vn032450 reporting.
  Task      778 on host vn032450 reporting.
  Task      779 on host vn032450 reporting.
  Task      780 on host vn032451 reporting.
  Task      781 on host vn032451 reporting.
  Task      782 on host vn032451 reporting.
  Task      783 on host vn032451 reporting.
  Task      784 on host vn032452 reporting.
  Task      785 on host vn032452 reporting.
  Task      786 on host vn032452 reporting.
  Task      787 on host vn032452 reporting.
  Task      788 on host vn032453 reporting.
  Task      789 on host vn032453 reporting.
  Task      790 on host vn032453 reporting.
  Task      791 on host vn032453 reporting.
  Task      792 on host vn032454 reporting.
  Task      793 on host vn032454 reporting.
  Task      794 on host vn032454 reporting.
  Task      795 on host vn032454 reporting.
  Task      796 on host vn032455 reporting.
  Task      797 on host vn032455 reporting.
  Task      798 on host vn032455 reporting.
  Task      799 on host vn032455 reporting.
  Task      800 on host vn032456 reporting.
  Task      801 on host vn032456 reporting.
  Task      802 on host vn032456 reporting.
  Task      803 on host vn032456 reporting.
  Task      804 on host vn032457 reporting.
  Task      805 on host vn032457 reporting.
  Task      806 on host vn032457 reporting.
  Task      807 on host vn032457 reporting.
  Task      808 on host vn032458 reporting.
  Task      809 on host vn032458 reporting.
  Task      810 on host vn032458 reporting.
  Task      811 on host vn032458 reporting.
  Task      812 on host vn032459 reporting.
  Task      813 on host vn032459 reporting.
  Task      814 on host vn032459 reporting.
  Task      815 on host vn032459 reporting.
  Task      816 on host vn032460 reporting.
  Task      817 on host vn032460 reporting.
  Task      818 on host vn032460 reporting.
  Task      819 on host vn032460 reporting.
  Task      820 on host vn032461 reporting.
  Task      821 on host vn032461 reporting.
  Task      822 on host vn032461 reporting.
  Task      823 on host vn032461 reporting.
  Task      824 on host vn032462 reporting.
  Task      825 on host vn032462 reporting.
  Task      826 on host vn032462 reporting.
  Task      827 on host vn032462 reporting.
  Task      828 on host vn032463 reporting.
  Task      829 on host vn032463 reporting.
  Task      830 on host vn032463 reporting.
  Task      831 on host vn032463 reporting.
  Task      832 on host vn032464 reporting.
  Task      833 on host vn032464 reporting.
  Task      834 on host vn032464 reporting.
  Task      835 on host vn032464 reporting.
  Task      836 on host vn032465 reporting.
  Task      837 on host vn032465 reporting.
  Task      838 on host vn032465 reporting.
  Task      839 on host vn032465 reporting.
  Task      840 on host vn032466 reporting.
  Task      841 on host vn032466 reporting.
  Task      842 on host vn032466 reporting.
  Task      843 on host vn032466 reporting.
  Task      844 on host vn032467 reporting.
  Task      845 on host vn032467 reporting.
  Task      846 on host vn032467 reporting.
  Task      847 on host vn032467 reporting.
  Task      848 on host vn032468 reporting.
  Task      849 on host vn032468 reporting.
  Task      850 on host vn032468 reporting.
  Task      851 on host vn032468 reporting.
  Task      852 on host vn032469 reporting.
  Task      853 on host vn032469 reporting.
  Task      854 on host vn032469 reporting.
  Task      855 on host vn032469 reporting.
  Task      856 on host vn032470 reporting.
  Task      857 on host vn032470 reporting.
  Task      858 on host vn032470 reporting.
  Task      859 on host vn032470 reporting.
  Task      860 on host vn032471 reporting.
  Task      861 on host vn032471 reporting.
  Task      862 on host vn032471 reporting.
  Task      863 on host vn032471 reporting.
  Task      864 on host vn032472 reporting.
  Task      865 on host vn032472 reporting.
  Task      866 on host vn032472 reporting.
  Task      867 on host vn032472 reporting.
  Task      868 on host vn032473 reporting.
  Task      869 on host vn032473 reporting.
  Task      870 on host vn032473 reporting.
  Task      871 on host vn032473 reporting.
  Task      872 on host vn032474 reporting.
  Task      873 on host vn032474 reporting.
  Task      874 on host vn032474 reporting.
  Task      875 on host vn032474 reporting.
  Task      876 on host vn032475 reporting.
  Task      877 on host vn032475 reporting.
  Task      878 on host vn032475 reporting.
  Task      879 on host vn032475 reporting.
  Task      880 on host vn032476 reporting.
  Task      881 on host vn032476 reporting.
  Task      882 on host vn032476 reporting.
  Task      883 on host vn032476 reporting.
  Task      884 on host vn032477 reporting.
  Task      885 on host vn032477 reporting.
  Task      886 on host vn032477 reporting.
  Task      887 on host vn032477 reporting.
  Task      888 on host vn032478 reporting.
  Task      889 on host vn032478 reporting.
  Task      890 on host vn032478 reporting.
  Task      891 on host vn032478 reporting.
  Task      892 on host vn032479 reporting.
  Task      893 on host vn032479 reporting.
  Task      894 on host vn032479 reporting.
  Task      895 on host vn032479 reporting.
  Task      896 on host vn032480 reporting.
  Task      897 on host vn032480 reporting.
  Task      898 on host vn032480 reporting.
  Task      899 on host vn032480 reporting.
  Task      900 on host vn032481 reporting.
  Task      901 on host vn032481 reporting.
  Task      902 on host vn032481 reporting.
  Task      903 on host vn032481 reporting.
  Task      904 on host vn032482 reporting.
  Task      905 on host vn032482 reporting.
  Task      906 on host vn032482 reporting.
  Task      907 on host vn032482 reporting.
  Task      908 on host vn032483 reporting.
  Task      909 on host vn032483 reporting.
  Task      910 on host vn032483 reporting.
  Task      911 on host vn032483 reporting.
  Task      912 on host vn032484 reporting.
  Task      913 on host vn032484 reporting.
  Task      914 on host vn032484 reporting.
  Task      915 on host vn032484 reporting.
  Task      916 on host vn032485 reporting.
  Task      917 on host vn032485 reporting.
  Task      918 on host vn032485 reporting.
  Task      919 on host vn032485 reporting.
  Task      920 on host vn032486 reporting.
  Task      921 on host vn032486 reporting.
  Task      922 on host vn032486 reporting.
  Task      923 on host vn032486 reporting.
  Task      924 on host vn032487 reporting.
  Task      925 on host vn032487 reporting.
  Task      926 on host vn032487 reporting.
  Task      927 on host vn032487 reporting.
  Task      928 on host vn032488 reporting.
  Task      929 on host vn032488 reporting.
  Task      930 on host vn032488 reporting.
  Task      931 on host vn032488 reporting.
  Task      932 on host vn032489 reporting.
  Task      933 on host vn032489 reporting.
  Task      934 on host vn032489 reporting.
  Task      935 on host vn032489 reporting.
  Task      936 on host vn032490 reporting.
  Task      937 on host vn032490 reporting.
  Task      938 on host vn032490 reporting.
  Task      939 on host vn032490 reporting.
  Task      940 on host vn032491 reporting.
  Task      941 on host vn032491 reporting.
  Task      942 on host vn032491 reporting.
  Task      943 on host vn032491 reporting.
  Task      944 on host vn032492 reporting.
  Task      945 on host vn032492 reporting.
  Task      946 on host vn032492 reporting.
  Task      947 on host vn032492 reporting.
  Task      948 on host vn032493 reporting.
  Task      949 on host vn032493 reporting.
  Task      950 on host vn032493 reporting.
  Task      951 on host vn032493 reporting.
  Task      952 on host vn032494 reporting.
  Task      953 on host vn032494 reporting.
  Task      954 on host vn032494 reporting.
  Task      955 on host vn032494 reporting.
  Task      956 on host vn032495 reporting.
  Task      957 on host vn032495 reporting.
  Task      958 on host vn032495 reporting.
  Task      959 on host vn032495 reporting.
  Task      960 on host vn032496 reporting.
  Task      961 on host vn032496 reporting.
  Task      962 on host vn032496 reporting.
  Task      963 on host vn032496 reporting.
  Task      964 on host vn032497 reporting.
  Task      965 on host vn032497 reporting.
  Task      966 on host vn032497 reporting.
  Task      967 on host vn032497 reporting.
  Task      968 on host vn032498 reporting.
  Task      969 on host vn032498 reporting.
  Task      970 on host vn032498 reporting.
  Task      971 on host vn032498 reporting.
  Task      972 on host vn032499 reporting.
  Task      973 on host vn032499 reporting.
  Task      974 on host vn032499 reporting.
  Task      975 on host vn032499 reporting.
  Task      976 on host vn032500 reporting.
  Task      977 on host vn032500 reporting.
  Task      978 on host vn032500 reporting.
  Task      979 on host vn032500 reporting.
  Task      980 on host vn032501 reporting.
  Task      981 on host vn032501 reporting.
  Task      982 on host vn032501 reporting.
  Task      983 on host vn032501 reporting.
  Task      984 on host vn032502 reporting.
  Task      985 on host vn032502 reporting.
  Task      986 on host vn032502 reporting.
  Task      987 on host vn032502 reporting.
  Task      988 on host vn032503 reporting.
  Task      989 on host vn032503 reporting.
  Task      990 on host vn032503 reporting.
  Task      991 on host vn032503 reporting.
  Task      992 on host vn032504 reporting.
  Task      993 on host vn032504 reporting.
  Task      994 on host vn032504 reporting.
  Task      995 on host vn032504 reporting.
  Task      996 on host vn032505 reporting.
  Task      997 on host vn032505 reporting.
  Task      998 on host vn032505 reporting.
  Task      999 on host vn032505 reporting.
  Task     1000 on host vn032506 reporting.
  Task     1001 on host vn032506 reporting.
  Task     1002 on host vn032506 reporting.
  Task     1003 on host vn032506 reporting.
  Task     1004 on host vn032507 reporting.
  Task     1005 on host vn032507 reporting.
  Task     1006 on host vn032507 reporting.
  Task     1007 on host vn032507 reporting.
  Task     1008 on host vn032508 reporting.
  Task     1009 on host vn032508 reporting.
  Task     1010 on host vn032508 reporting.
  Task     1011 on host vn032508 reporting.
  Task     1012 on host vn032509 reporting.
  Task     1013 on host vn032509 reporting.
  Task     1014 on host vn032509 reporting.
  Task     1015 on host vn032509 reporting.
  Task     1016 on host vn032510 reporting.
  Task     1017 on host vn032510 reporting.
  Task     1018 on host vn032510 reporting.
  Task     1019 on host vn032510 reporting.
  Task     1020 on host vn032511 reporting.
  Task     1021 on host vn032511 reporting.
  Task     1022 on host vn032511 reporting.
  Task     1023 on host vn032511 reporting.
  Task     1024 on host vn032512 reporting.
  Task     1025 on host vn032512 reporting.
  Task     1026 on host vn032512 reporting.
  Task     1027 on host vn032512 reporting.
  Task     1028 on host vn032513 reporting.
  Task     1029 on host vn032513 reporting.
  Task     1030 on host vn032513 reporting.
  Task     1031 on host vn032513 reporting.
  Task     1032 on host vn032514 reporting.
  Task     1033 on host vn032514 reporting.
  Task     1034 on host vn032514 reporting.
  Task     1035 on host vn032514 reporting.
  Task     1036 on host vn032515 reporting.
  Task     1037 on host vn032515 reporting.
  Task     1038 on host vn032515 reporting.
  Task     1039 on host vn032515 reporting.
  Task     1040 on host vn032516 reporting.
  Task     1041 on host vn032516 reporting.
  Task     1042 on host vn032516 reporting.
  Task     1043 on host vn032516 reporting.
  Task     1044 on host vn032517 reporting.
  Task     1045 on host vn032517 reporting.
  Task     1046 on host vn032517 reporting.
  Task     1047 on host vn032517 reporting.
  Task     1048 on host vn032518 reporting.
  Task     1049 on host vn032518 reporting.
  Task     1050 on host vn032518 reporting.
  Task     1051 on host vn032518 reporting.
  Task     1052 on host vn032519 reporting.
  Task     1053 on host vn032519 reporting.
  Task     1054 on host vn032519 reporting.
  Task     1055 on host vn032519 reporting.
  Task     1056 on host vn032520 reporting.
  Task     1057 on host vn032520 reporting.
  Task     1058 on host vn032520 reporting.
  Task     1059 on host vn032520 reporting.
  Task     1060 on host vn032521 reporting.
  Task     1061 on host vn032521 reporting.
  Task     1062 on host vn032521 reporting.
  Task     1063 on host vn032521 reporting.
  Task     1064 on host vn032522 reporting.
  Task     1065 on host vn032522 reporting.
  Task     1066 on host vn032522 reporting.
  Task     1067 on host vn032522 reporting.
  Task     1068 on host vn032523 reporting.
  Task     1069 on host vn032523 reporting.
  Task     1070 on host vn032523 reporting.
  Task     1071 on host vn032523 reporting.
  Task     1072 on host vn032524 reporting.
  Task     1073 on host vn032524 reporting.
  Task     1074 on host vn032524 reporting.
  Task     1075 on host vn032524 reporting.
  Task     1076 on host vn032525 reporting.
  Task     1077 on host vn032525 reporting.
  Task     1078 on host vn032525 reporting.
  Task     1079 on host vn032525 reporting.
  Task     1080 on host vn032526 reporting.
  Task     1081 on host vn032526 reporting.
  Task     1082 on host vn032526 reporting.
  Task     1083 on host vn032526 reporting.
  Task     1084 on host vn032527 reporting.
  Task     1085 on host vn032527 reporting.
  Task     1086 on host vn032527 reporting.
  Task     1087 on host vn032527 reporting.
  Task     1088 on host vn032528 reporting.
  Task     1089 on host vn032528 reporting.
  Task     1090 on host vn032528 reporting.
  Task     1091 on host vn032528 reporting.
  Task     1092 on host vn032529 reporting.
  Task     1093 on host vn032529 reporting.
  Task     1094 on host vn032529 reporting.
  Task     1095 on host vn032529 reporting.
  Task     1096 on host vn032530 reporting.
  Task     1097 on host vn032530 reporting.
  Task     1098 on host vn032530 reporting.
  Task     1099 on host vn032530 reporting.
  Task     1100 on host vn032531 reporting.
  Task     1101 on host vn032531 reporting.
  Task     1102 on host vn032531 reporting.
  Task     1103 on host vn032531 reporting.
  Task     1104 on host vn032532 reporting.
  Task     1105 on host vn032532 reporting.
  Task     1106 on host vn032532 reporting.
  Task     1107 on host vn032532 reporting.
  Task     1108 on host vn032533 reporting.
  Task     1109 on host vn032533 reporting.
  Task     1110 on host vn032533 reporting.
  Task     1111 on host vn032533 reporting.
  Task     1112 on host vn032534 reporting.
  Task     1113 on host vn032534 reporting.
  Task     1114 on host vn032534 reporting.
  Task     1115 on host vn032534 reporting.
  Task     1116 on host vn032535 reporting.
  Task     1117 on host vn032535 reporting.
  Task     1118 on host vn032535 reporting.
  Task     1119 on host vn032535 reporting.
  Task     1120 on host vn032536 reporting.
  Task     1121 on host vn032536 reporting.
  Task     1122 on host vn032536 reporting.
  Task     1123 on host vn032536 reporting.
  Task     1124 on host vn032537 reporting.
  Task     1125 on host vn032537 reporting.
  Task     1126 on host vn032537 reporting.
  Task     1127 on host vn032537 reporting.
  Task     1128 on host vn032538 reporting.
  Task     1129 on host vn032538 reporting.
  Task     1130 on host vn032538 reporting.
  Task     1131 on host vn032538 reporting.
  Task     1132 on host vn032539 reporting.
  Task     1133 on host vn032539 reporting.
  Task     1134 on host vn032539 reporting.
  Task     1135 on host vn032539 reporting.
  Task     1136 on host vn032540 reporting.
  Task     1137 on host vn032540 reporting.
  Task     1138 on host vn032540 reporting.
  Task     1139 on host vn032540 reporting.
  Task     1140 on host vn032541 reporting.
  Task     1141 on host vn032541 reporting.
  Task     1142 on host vn032541 reporting.
  Task     1143 on host vn032541 reporting.
  Task     1144 on host vn032542 reporting.
  Task     1145 on host vn032542 reporting.
  Task     1146 on host vn032542 reporting.
  Task     1147 on host vn032542 reporting.
  Task     1148 on host vn032543 reporting.
  Task     1149 on host vn032543 reporting.
  Task     1150 on host vn032543 reporting.
  Task     1151 on host vn032543 reporting.
  Task     1152 on host vn032544 reporting.
  Task     1153 on host vn032544 reporting.
  Task     1154 on host vn032544 reporting.
  Task     1155 on host vn032544 reporting.
  Task     1156 on host vn032545 reporting.
  Task     1157 on host vn032545 reporting.
  Task     1158 on host vn032545 reporting.
  Task     1159 on host vn032545 reporting.
  Task     1160 on host vn032546 reporting.
  Task     1161 on host vn032546 reporting.
  Task     1162 on host vn032546 reporting.
  Task     1163 on host vn032546 reporting.
  Task     1164 on host vn032547 reporting.
  Task     1165 on host vn032547 reporting.
  Task     1166 on host vn032547 reporting.
  Task     1167 on host vn032547 reporting.
  Task     1168 on host vn032548 reporting.
  Task     1169 on host vn032548 reporting.
  Task     1170 on host vn032548 reporting.
  Task     1171 on host vn032548 reporting.
  Task     1172 on host vn032549 reporting.
  Task     1173 on host vn032549 reporting.
  Task     1174 on host vn032549 reporting.
  Task     1175 on host vn032549 reporting.
  Task     1176 on host vn032550 reporting.
  Task     1177 on host vn032550 reporting.
  Task     1178 on host vn032550 reporting.
  Task     1179 on host vn032550 reporting.
  Task     1180 on host vn032551 reporting.
  Task     1181 on host vn032551 reporting.
  Task     1182 on host vn032551 reporting.
  Task     1183 on host vn032551 reporting.
  Task     1184 on host vn032552 reporting.
  Task     1185 on host vn032552 reporting.
  Task     1186 on host vn032552 reporting.
  Task     1187 on host vn032552 reporting.
  Task     1188 on host vn032553 reporting.
  Task     1189 on host vn032553 reporting.
  Task     1190 on host vn032553 reporting.
  Task     1191 on host vn032553 reporting.
  Task     1192 on host vn032554 reporting.
  Task     1193 on host vn032554 reporting.
  Task     1194 on host vn032554 reporting.
  Task     1195 on host vn032554 reporting.
  Task     1196 on host vn032555 reporting.
  Task     1197 on host vn032555 reporting.
  Task     1198 on host vn032555 reporting.
  Task     1199 on host vn032555 reporting.
  Task     1200 on host vn032556 reporting.
  Task     1201 on host vn032556 reporting.
  Task     1202 on host vn032556 reporting.
  Task     1203 on host vn032556 reporting.
  Task     1204 on host vn032557 reporting.
  Task     1205 on host vn032557 reporting.
  Task     1206 on host vn032557 reporting.
  Task     1207 on host vn032557 reporting.
  Task     1208 on host vn032558 reporting.
  Task     1209 on host vn032558 reporting.
  Task     1210 on host vn032558 reporting.
  Task     1211 on host vn032558 reporting.
  Task     1212 on host vn032559 reporting.
  Task     1213 on host vn032559 reporting.
  Task     1214 on host vn032559 reporting.
  Task     1215 on host vn032559 reporting.
  Task     1216 on host vn032560 reporting.
  Task     1217 on host vn032560 reporting.
  Task     1218 on host vn032560 reporting.
  Task     1219 on host vn032560 reporting.
  Task     1220 on host vn032561 reporting.
  Task     1221 on host vn032561 reporting.
  Task     1222 on host vn032561 reporting.
  Task     1223 on host vn032561 reporting.
  Task     1224 on host vn032562 reporting.
  Task     1225 on host vn032562 reporting.
  Task     1226 on host vn032562 reporting.
  Task     1227 on host vn032562 reporting.
  Task     1228 on host vn032563 reporting.
  Task     1229 on host vn032563 reporting.
  Task     1230 on host vn032563 reporting.
  Task     1231 on host vn032563 reporting.
  Task     1232 on host vn032564 reporting.
  Task     1233 on host vn032564 reporting.
  Task     1234 on host vn032564 reporting.
  Task     1235 on host vn032564 reporting.
  Task     1236 on host vn032565 reporting.
  Task     1237 on host vn032565 reporting.
  Task     1238 on host vn032565 reporting.
  Task     1239 on host vn032565 reporting.
  Task     1240 on host vn032566 reporting.
  Task     1241 on host vn032566 reporting.
  Task     1242 on host vn032566 reporting.
  Task     1243 on host vn032566 reporting.
  Task     1244 on host vn032567 reporting.
  Task     1245 on host vn032567 reporting.
  Task     1246 on host vn032567 reporting.
  Task     1247 on host vn032567 reporting.
  Task     1248 on host vn032568 reporting.
  Task     1249 on host vn032568 reporting.
  Task     1250 on host vn032568 reporting.
  Task     1251 on host vn032568 reporting.
  Task     1252 on host vn032569 reporting.
  Task     1253 on host vn032569 reporting.
  Task     1254 on host vn032569 reporting.
  Task     1255 on host vn032569 reporting.
  Task     1256 on host vn032570 reporting.
  Task     1257 on host vn032570 reporting.
  Task     1258 on host vn032570 reporting.
  Task     1259 on host vn032570 reporting.
  Task     1260 on host vn032571 reporting.
  Task     1261 on host vn032571 reporting.
  Task     1262 on host vn032571 reporting.
  Task     1263 on host vn032571 reporting.
  Task     1264 on host vn032572 reporting.
  Task     1265 on host vn032572 reporting.
  Task     1266 on host vn032572 reporting.
  Task     1267 on host vn032572 reporting.
  Task     1268 on host vn032573 reporting.
  Task     1269 on host vn032573 reporting.
  Task     1270 on host vn032573 reporting.
  Task     1271 on host vn032573 reporting.
  Task     1272 on host vn032574 reporting.
  Task     1273 on host vn032574 reporting.
  Task     1274 on host vn032574 reporting.
  Task     1275 on host vn032574 reporting.
  Task     1276 on host vn032575 reporting.
  Task     1277 on host vn032575 reporting.
  Task     1278 on host vn032575 reporting.
  Task     1279 on host vn032575 reporting.
  Task     1280 on host vn032576 reporting.
  Task     1281 on host vn032576 reporting.
  Task     1282 on host vn032576 reporting.
  Task     1283 on host vn032576 reporting.
  Task     1284 on host vn032577 reporting.
  Task     1285 on host vn032577 reporting.
  Task     1286 on host vn032577 reporting.
  Task     1287 on host vn032577 reporting.
  Task     1288 on host vn032578 reporting.
  Task     1289 on host vn032578 reporting.
  Task     1290 on host vn032578 reporting.
  Task     1291 on host vn032578 reporting.
  Task     1292 on host vn032579 reporting.
  Task     1293 on host vn032579 reporting.
  Task     1294 on host vn032579 reporting.
  Task     1295 on host vn032579 reporting.
  Task     1296 on host vn032580 reporting.
  Task     1297 on host vn032580 reporting.
  Task     1298 on host vn032580 reporting.
  Task     1299 on host vn032580 reporting.
  Task     1300 on host vn032581 reporting.
  Task     1301 on host vn032581 reporting.
  Task     1302 on host vn032581 reporting.
  Task     1303 on host vn032581 reporting.
  Task     1304 on host vn032582 reporting.
  Task     1305 on host vn032582 reporting.
  Task     1306 on host vn032582 reporting.
  Task     1307 on host vn032582 reporting.
  Task     1308 on host vn032583 reporting.
  Task     1309 on host vn032583 reporting.
  Task     1310 on host vn032583 reporting.
  Task     1311 on host vn032583 reporting.
  Task     1312 on host vn032584 reporting.
  Task     1313 on host vn032584 reporting.
  Task     1314 on host vn032584 reporting.
  Task     1315 on host vn032584 reporting.
  Task     1316 on host vn032585 reporting.
  Task     1317 on host vn032585 reporting.
  Task     1318 on host vn032585 reporting.
  Task     1319 on host vn032585 reporting.
  Task     1320 on host vn032586 reporting.
  Task     1321 on host vn032586 reporting.
  Task     1322 on host vn032586 reporting.
  Task     1323 on host vn032586 reporting.
  Task     1324 on host vn032587 reporting.
  Task     1325 on host vn032587 reporting.
  Task     1326 on host vn032587 reporting.
  Task     1327 on host vn032587 reporting.
  Task     1328 on host vn032588 reporting.
  Task     1329 on host vn032588 reporting.
  Task     1330 on host vn032588 reporting.
  Task     1331 on host vn032588 reporting.
  Task     1332 on host vn032589 reporting.
  Task     1333 on host vn032589 reporting.
  Task     1334 on host vn032589 reporting.
  Task     1335 on host vn032589 reporting.
  Task     1336 on host vn032590 reporting.
  Task     1337 on host vn032590 reporting.
  Task     1338 on host vn032590 reporting.
  Task     1339 on host vn032590 reporting.
  Task     1340 on host vn032591 reporting.
  Task     1341 on host vn032591 reporting.
  Task     1342 on host vn032591 reporting.
  Task     1343 on host vn032591 reporting.
  Task     1344 on host vn032592 reporting.
  Task     1345 on host vn032592 reporting.
  Task     1346 on host vn032592 reporting.
  Task     1347 on host vn032592 reporting.
  Task     1348 on host vn032593 reporting.
  Task     1349 on host vn032593 reporting.
  Task     1350 on host vn032593 reporting.
  Task     1351 on host vn032593 reporting.
  Task     1352 on host vn032594 reporting.
  Task     1353 on host vn032594 reporting.
  Task     1354 on host vn032594 reporting.
  Task     1355 on host vn032594 reporting.
  Task     1356 on host vn032595 reporting.
  Task     1357 on host vn032595 reporting.
  Task     1358 on host vn032595 reporting.
  Task     1359 on host vn032595 reporting.
  Task     1360 on host vn032596 reporting.
  Task     1361 on host vn032596 reporting.
  Task     1362 on host vn032596 reporting.
  Task     1363 on host vn032596 reporting.
  Task     1364 on host vn032597 reporting.
  Task     1365 on host vn032597 reporting.
  Task     1366 on host vn032597 reporting.
  Task     1367 on host vn032597 reporting.
  Task     1368 on host vn032598 reporting.
  Task     1369 on host vn032598 reporting.
  Task     1370 on host vn032598 reporting.
  Task     1371 on host vn032598 reporting.
  Task     1372 on host vn032599 reporting.
  Task     1373 on host vn032599 reporting.
  Task     1374 on host vn032599 reporting.
  Task     1375 on host vn032599 reporting.
  Task     1376 on host vn032600 reporting.
  Task     1377 on host vn032600 reporting.
  Task     1378 on host vn032600 reporting.
  Task     1379 on host vn032600 reporting.
  Task     1380 on host vn032601 reporting.
  Task     1381 on host vn032601 reporting.
  Task     1382 on host vn032601 reporting.
  Task     1383 on host vn032601 reporting.
  Task     1384 on host vn032602 reporting.
  Task     1385 on host vn032602 reporting.
  Task     1386 on host vn032602 reporting.
  Task     1387 on host vn032602 reporting.
  Task     1388 on host vn032603 reporting.
  Task     1389 on host vn032603 reporting.
  Task     1390 on host vn032603 reporting.
  Task     1391 on host vn032603 reporting.
  Task     1392 on host vn032604 reporting.
  Task     1393 on host vn032604 reporting.
  Task     1394 on host vn032604 reporting.
  Task     1395 on host vn032604 reporting.
  Task     1396 on host vn032605 reporting.
  Task     1397 on host vn032605 reporting.
  Task     1398 on host vn032605 reporting.
  Task     1399 on host vn032605 reporting.
  Task     1400 on host vn032606 reporting.
  Task     1401 on host vn032606 reporting.
  Task     1402 on host vn032606 reporting.
  Task     1403 on host vn032606 reporting.
  Task     1404 on host vn032607 reporting.
  Task     1405 on host vn032607 reporting.
  Task     1406 on host vn032607 reporting.
  Task     1407 on host vn032607 reporting.
  Task     1408 on host vn032608 reporting.
  Task     1409 on host vn032608 reporting.
  Task     1410 on host vn032608 reporting.
  Task     1411 on host vn032608 reporting.
  Task     1412 on host vn032609 reporting.
  Task     1413 on host vn032609 reporting.
  Task     1414 on host vn032609 reporting.
  Task     1415 on host vn032609 reporting.
  Task     1416 on host vn032610 reporting.
  Task     1417 on host vn032610 reporting.
  Task     1418 on host vn032610 reporting.
  Task     1419 on host vn032610 reporting.
  Task     1420 on host vn032611 reporting.
  Task     1421 on host vn032611 reporting.
  Task     1422 on host vn032611 reporting.
  Task     1423 on host vn032611 reporting.
  Task     1424 on host vn032612 reporting.
  Task     1425 on host vn032612 reporting.
  Task     1426 on host vn032612 reporting.
  Task     1427 on host vn032612 reporting.
  Task     1428 on host vn032613 reporting.
  Task     1429 on host vn032613 reporting.
  Task     1430 on host vn032613 reporting.
  Task     1431 on host vn032613 reporting.
  Task     1432 on host vn032614 reporting.
  Task     1433 on host vn032614 reporting.
  Task     1434 on host vn032614 reporting.
  Task     1435 on host vn032614 reporting.
  Task     1436 on host vn032615 reporting.
  Task     1437 on host vn032615 reporting.
  Task     1438 on host vn032615 reporting.
  Task     1439 on host vn032615 reporting.
  Task     1440 on host vn032616 reporting.
  Task     1441 on host vn032616 reporting.
  Task     1442 on host vn032616 reporting.
  Task     1443 on host vn032616 reporting.
  Task     1444 on host vn032617 reporting.
  Task     1445 on host vn032617 reporting.
  Task     1446 on host vn032617 reporting.
  Task     1447 on host vn032617 reporting.
  Task     1448 on host vn032618 reporting.
  Task     1449 on host vn032618 reporting.
  Task     1450 on host vn032618 reporting.
  Task     1451 on host vn032618 reporting.
  Task     1452 on host vn032619 reporting.
  Task     1453 on host vn032619 reporting.
  Task     1454 on host vn032619 reporting.
  Task     1455 on host vn032619 reporting.
  Task     1456 on host vn032620 reporting.
  Task     1457 on host vn032620 reporting.
  Task     1458 on host vn032620 reporting.
  Task     1459 on host vn032620 reporting.
  Task     1460 on host vn032621 reporting.
  Task     1461 on host vn032621 reporting.
  Task     1462 on host vn032621 reporting.
  Task     1463 on host vn032621 reporting.
  Task     1464 on host vn032622 reporting.
  Task     1465 on host vn032622 reporting.
  Task     1466 on host vn032622 reporting.
  Task     1467 on host vn032622 reporting.
  Task     1468 on host vn032623 reporting.
  Task     1469 on host vn032623 reporting.
  Task     1470 on host vn032623 reporting.
  Task     1471 on host vn032623 reporting.
  Task     1472 on host vn032624 reporting.
  Task     1473 on host vn032624 reporting.
  Task     1474 on host vn032624 reporting.
  Task     1475 on host vn032624 reporting.
  Task     1476 on host vn032625 reporting.
  Task     1477 on host vn032625 reporting.
  Task     1478 on host vn032625 reporting.
  Task     1479 on host vn032625 reporting.
  Task     1480 on host vn032626 reporting.
  Task     1481 on host vn032626 reporting.
  Task     1482 on host vn032626 reporting.
  Task     1483 on host vn032626 reporting.
  Task     1484 on host vn032627 reporting.
  Task     1485 on host vn032627 reporting.
  Task     1486 on host vn032627 reporting.
  Task     1487 on host vn032627 reporting.
  Task     1488 on host vn032628 reporting.
  Task     1489 on host vn032628 reporting.
  Task     1490 on host vn032628 reporting.
  Task     1491 on host vn032628 reporting.
  Task     1492 on host vn032629 reporting.
  Task     1493 on host vn032629 reporting.
  Task     1494 on host vn032629 reporting.
  Task     1495 on host vn032629 reporting.
  Task     1496 on host vn032630 reporting.
  Task     1497 on host vn032630 reporting.
  Task     1498 on host vn032630 reporting.
  Task     1499 on host vn032630 reporting.
  Task     1500 on host vn032631 reporting.
  Task     1501 on host vn032631 reporting.
  Task     1502 on host vn032631 reporting.
  Task     1503 on host vn032631 reporting.
  Task     1504 on host vn032632 reporting.
  Task     1505 on host vn032632 reporting.
  Task     1506 on host vn032632 reporting.
  Task     1507 on host vn032632 reporting.
  Task     1508 on host vn032633 reporting.
  Task     1509 on host vn032633 reporting.
  Task     1510 on host vn032633 reporting.
  Task     1511 on host vn032633 reporting.
  Task     1512 on host vn032634 reporting.
  Task     1513 on host vn032634 reporting.
  Task     1514 on host vn032634 reporting.
  Task     1515 on host vn032634 reporting.
  Task     1516 on host vn032635 reporting.
  Task     1517 on host vn032635 reporting.
  Task     1518 on host vn032635 reporting.
  Task     1519 on host vn032635 reporting.
  Task     1520 on host vn032636 reporting.
  Task     1521 on host vn032636 reporting.
  Task     1522 on host vn032636 reporting.
  Task     1523 on host vn032636 reporting.
  Task     1524 on host vn032637 reporting.
  Task     1525 on host vn032637 reporting.
  Task     1526 on host vn032637 reporting.
  Task     1527 on host vn032637 reporting.
  Task     1528 on host vn032638 reporting.
  Task     1529 on host vn032638 reporting.
  Task     1530 on host vn032638 reporting.
  Task     1531 on host vn032638 reporting.
  Task     1532 on host vn032639 reporting.
  Task     1533 on host vn032639 reporting.
  Task     1534 on host vn032639 reporting.
  Task     1535 on host vn032639 reporting.
  Task     1536 on host vn032640 reporting.
  Task     1537 on host vn032640 reporting.
  Task     1538 on host vn032640 reporting.
  Task     1539 on host vn032640 reporting.
  Task     1540 on host vn032641 reporting.
  Task     1541 on host vn032641 reporting.
  Task     1542 on host vn032641 reporting.
  Task     1543 on host vn032641 reporting.
  Task     1544 on host vn032642 reporting.
  Task     1545 on host vn032642 reporting.
  Task     1546 on host vn032642 reporting.
  Task     1547 on host vn032642 reporting.
  Task     1548 on host vn032643 reporting.
  Task     1549 on host vn032643 reporting.
  Task     1550 on host vn032643 reporting.
  Task     1551 on host vn032643 reporting.
  Task     1552 on host vn032644 reporting.
  Task     1553 on host vn032644 reporting.
  Task     1554 on host vn032644 reporting.
  Task     1555 on host vn032644 reporting.
  Task     1556 on host vn032645 reporting.
  Task     1557 on host vn032645 reporting.
  Task     1558 on host vn032645 reporting.
  Task     1559 on host vn032645 reporting.
  Task     1560 on host vn032646 reporting.
  Task     1561 on host vn032646 reporting.
  Task     1562 on host vn032646 reporting.
  Task     1563 on host vn032646 reporting.
  Task     1564 on host vn032647 reporting.
  Task     1565 on host vn032647 reporting.
  Task     1566 on host vn032647 reporting.
  Task     1567 on host vn032647 reporting.
  Task     1568 on host vn032648 reporting.
  Task     1569 on host vn032648 reporting.
  Task     1570 on host vn032648 reporting.
  Task     1571 on host vn032648 reporting.
  Task     1572 on host vn032649 reporting.
  Task     1573 on host vn032649 reporting.
  Task     1574 on host vn032649 reporting.
  Task     1575 on host vn032649 reporting.
  Task     1576 on host vn032650 reporting.
  Task     1577 on host vn032650 reporting.
  Task     1578 on host vn032650 reporting.
  Task     1579 on host vn032650 reporting.
  Task     1580 on host vn032651 reporting.
  Task     1581 on host vn032651 reporting.
  Task     1582 on host vn032651 reporting.
  Task     1583 on host vn032651 reporting.
  Task     1584 on host vn032652 reporting.
  Task     1585 on host vn032652 reporting.
  Task     1586 on host vn032652 reporting.
  Task     1587 on host vn032652 reporting.
  Task     1588 on host vn032653 reporting.
  Task     1589 on host vn032653 reporting.
  Task     1590 on host vn032653 reporting.
  Task     1591 on host vn032653 reporting.
  Task     1592 on host vn032654 reporting.
  Task     1593 on host vn032654 reporting.
  Task     1594 on host vn032654 reporting.
  Task     1595 on host vn032654 reporting.
  Task     1596 on host vn032655 reporting.
  Task     1597 on host vn032655 reporting.
  Task     1598 on host vn032655 reporting.
  Task     1599 on host vn032655 reporting.
  Task     1600 on host vn032656 reporting.
  Task     1601 on host vn032656 reporting.
  Task     1602 on host vn032656 reporting.
  Task     1603 on host vn032656 reporting.
  Task     1604 on host vn032657 reporting.
  Task     1605 on host vn032657 reporting.
  Task     1606 on host vn032657 reporting.
  Task     1607 on host vn032657 reporting.
  Task     1608 on host vn032658 reporting.
  Task     1609 on host vn032658 reporting.
  Task     1610 on host vn032658 reporting.
  Task     1611 on host vn032658 reporting.
  Task     1612 on host vn032659 reporting.
  Task     1613 on host vn032659 reporting.
  Task     1614 on host vn032659 reporting.
  Task     1615 on host vn032659 reporting.
  Task     1616 on host vn032660 reporting.
  Task     1617 on host vn032660 reporting.
  Task     1618 on host vn032660 reporting.
  Task     1619 on host vn032660 reporting.
  Task     1620 on host vn032661 reporting.
  Task     1621 on host vn032661 reporting.
  Task     1622 on host vn032661 reporting.
  Task     1623 on host vn032661 reporting.
  Task     1624 on host vn032662 reporting.
  Task     1625 on host vn032662 reporting.
  Task     1626 on host vn032662 reporting.
  Task     1627 on host vn032662 reporting.
  Task     1628 on host vn032663 reporting.
  Task     1629 on host vn032663 reporting.
  Task     1630 on host vn032663 reporting.
  Task     1631 on host vn032663 reporting.
  Task     1632 on host vn032664 reporting.
  Task     1633 on host vn032664 reporting.
  Task     1634 on host vn032664 reporting.
  Task     1635 on host vn032664 reporting.
  Task     1636 on host vn032665 reporting.
  Task     1637 on host vn032665 reporting.
  Task     1638 on host vn032665 reporting.
  Task     1639 on host vn032665 reporting.
  Task     1640 on host vn032666 reporting.
  Task     1641 on host vn032666 reporting.
  Task     1642 on host vn032666 reporting.
  Task     1643 on host vn032666 reporting.
  Task     1644 on host vn032667 reporting.
  Task     1645 on host vn032667 reporting.
  Task     1646 on host vn032667 reporting.
  Task     1647 on host vn032667 reporting.
  Task     1648 on host vn032668 reporting.
  Task     1649 on host vn032668 reporting.
  Task     1650 on host vn032668 reporting.
  Task     1651 on host vn032668 reporting.
  Task     1652 on host vn032669 reporting.
  Task     1653 on host vn032669 reporting.
  Task     1654 on host vn032669 reporting.
  Task     1655 on host vn032669 reporting.
  Task     1656 on host vn032670 reporting.
  Task     1657 on host vn032670 reporting.
  Task     1658 on host vn032670 reporting.
  Task     1659 on host vn032670 reporting.
  Task     1660 on host vn032671 reporting.
  Task     1661 on host vn032671 reporting.
  Task     1662 on host vn032671 reporting.
  Task     1663 on host vn032671 reporting.
  Task     1664 on host vn032672 reporting.
  Task     1665 on host vn032672 reporting.
  Task     1666 on host vn032672 reporting.
  Task     1667 on host vn032672 reporting.
  Task     1668 on host vn032673 reporting.
  Task     1669 on host vn032673 reporting.
  Task     1670 on host vn032673 reporting.
  Task     1671 on host vn032673 reporting.
  Task     1672 on host vn032674 reporting.
  Task     1673 on host vn032674 reporting.
  Task     1674 on host vn032674 reporting.
  Task     1675 on host vn032674 reporting.
  Task     1676 on host vn032675 reporting.
  Task     1677 on host vn032675 reporting.
  Task     1678 on host vn032675 reporting.
  Task     1679 on host vn032675 reporting.
  Task     1680 on host vn032676 reporting.
  Task     1681 on host vn032676 reporting.
  Task     1682 on host vn032676 reporting.
  Task     1683 on host vn032676 reporting.
  Task     1684 on host vn032677 reporting.
  Task     1685 on host vn032677 reporting.
  Task     1686 on host vn032677 reporting.
  Task     1687 on host vn032677 reporting.
  Task     1688 on host vn032678 reporting.
  Task     1689 on host vn032678 reporting.
  Task     1690 on host vn032678 reporting.
  Task     1691 on host vn032678 reporting.
  Task     1692 on host vn032679 reporting.
  Task     1693 on host vn032679 reporting.
  Task     1694 on host vn032679 reporting.
  Task     1695 on host vn032679 reporting.
  Task     1696 on host vn032680 reporting.
  Task     1697 on host vn032680 reporting.
  Task     1698 on host vn032680 reporting.
  Task     1699 on host vn032680 reporting.
  Task     1700 on host vn032681 reporting.
  Task     1701 on host vn032681 reporting.
  Task     1702 on host vn032681 reporting.
  Task     1703 on host vn032681 reporting.
  Task     1704 on host vn032682 reporting.
  Task     1705 on host vn032682 reporting.
  Task     1706 on host vn032682 reporting.
  Task     1707 on host vn032682 reporting.
  Task     1708 on host vn032683 reporting.
  Task     1709 on host vn032683 reporting.
  Task     1710 on host vn032683 reporting.
  Task     1711 on host vn032683 reporting.
  Task     1712 on host vn032684 reporting.
  Task     1713 on host vn032684 reporting.
  Task     1714 on host vn032684 reporting.
  Task     1715 on host vn032684 reporting.
  Task     1716 on host vn032685 reporting.
  Task     1717 on host vn032685 reporting.
  Task     1718 on host vn032685 reporting.
  Task     1719 on host vn032685 reporting.
  Task     1720 on host vn032686 reporting.
  Task     1721 on host vn032686 reporting.
  Task     1722 on host vn032686 reporting.
  Task     1723 on host vn032686 reporting.
  Task     1724 on host vn032687 reporting.
  Task     1725 on host vn032687 reporting.
  Task     1726 on host vn032687 reporting.
  Task     1727 on host vn032687 reporting.
[...]
  Task  4010 has       3987 integration points.
  Task  4011 has       3977 integration points.
  Task  4012 has       3910 integration points.
  Task  4013 has       3984 integration points.
  Task  4014 has       3973 integration points.
  Task  4015 has       3896 integration points.
  Task  4016 has       3989 integration points.
  Task  4017 has       3888 integration points.
  Task  4018 has       3976 integration points.
  Task  4019 has       3989 integration points.
  Task  4020 has       3953 integration points.
  Task  4021 has       3954 integration points.
  Task  4022 has       3897 integration points.
  Task  4023 has       3974 integration points.
  Task  4024 has       3957 integration points.
  Task  4025 has       3986 integration points.
  Task  4026 has       3888 integration points.
  Task  4027 has       3899 integration points.
  Task  4028 has       3888 integration points.
  Task  4029 has       3967 integration points.
  Task  4030 has       3977 integration points.
  Task  4031 has       3931 integration points.
  Task  4032 has       3903 integration points.
  Task  4033 has       3978 integration points.
  Task  4034 has       3975 integration points.
  Task  4035 has       3951 integration points.
  Task  4036 has       3912 integration points.
  Task  4037 has       4022 integration points.
  Task  4038 has       3895 integration points.
  Task  4039 has       3889 integration points.
  Task  4040 has       3888 integration points.
  Task  4041 has       3955 integration points.
  Task  4042 has       3950 integration points.
  Task  4043 has       4041 integration points.
  Task  4044 has       3971 integration points.
  Task  4045 has       3917 integration points.
  Task  4046 has       3975 integration points.
  Task  4047 has       3977 integration points.
  Task  4048 has       3945 integration points.
  Task  4049 has       3991 integration points.
  Task  4050 has       3942 integration points.
  Task  4051 has       3951 integration points.
  Task  4052 has       3890 integration points.
  Task  4053 has       3893 integration points.
  Task  4054 has       3899 integration points.
  Task  4055 has       3902 integration points.
  Task  4056 has       3976 integration points.
  Task  4057 has       3956 integration points.
  Task  4058 has       4004 integration points.
  Task  4059 has       3980 integration points.
  Task  4060 has       3941 integration points.
  Task  4061 has       4007 integration points.
  Task  4062 has       3948 integration points.
  Task  4063 has       3977 integration points.
  Task  4064 has       4024 integration points.
  Task  4065 has       3895 integration points.
  Task  4066 has       3959 integration points.
  Task  4067 has       4003 integration points.
  Task  4068 has       3969 integration points.
  Task  4069 has       4025 integration points.
  Task  4070 has       3973 integration points.
  Task  4071 has       3897 integration points.
  Task  4072 has       3919 integration points.
  Task  4073 has       3942 integration points.
  Task  4074 has       3895 integration points.
  Task  4075 has       4024 integration points.
  Task  4076 has       3955 integration points.
  Task  4077 has       3971 integration points.
  Task  4078 has       3973 integration points.
  Task  4079 has       3952 integration points.
  Task  4080 has       3974 integration points.
  Task  4081 has       3975 integration points.
  Task  4082 has       3942 integration points.
  Task  4083 has       4026 integration points.
  Task  4084 has       3966 integration points.
  Task  4085 has       3979 integration points.
  Task  4086 has       3899 integration points.
  Task  4087 has       3975 integration points.
  Task  4088 has       3973 integration points.
  Task  4089 has       3946 integration points.
  Task  4090 has       3957 integration points.
  Task  4091 has       3888 integration points.
  Task  4092 has       3905 integration points.
  Task  4093 has       3891 integration points.
  Task  4094 has       3976 integration points.
  Task  4095 has       4023 integration points.
  | Analytical far-field extrapolation by fixed multipoles:
  | Hartree multipole sum: apparent total charge =   0.135827E-02
  Summing up the Hartree potential.
 Sync_vector: start
 Allreduce_part1:    69185.995729640126       us, dim =     13827600  max_len =      1048576  comm_size =         4096
 Allreduce_part2:    900408.29998906702       us, dim =    203957100  max_len =      1048576  comm_size =         4096
 Sync_vector:    1.6325469095027074       s, myid=            0  dim1=     13827600  dim2=    203957100
  Time summed over all CPUs for potential: real work     8368.809 s, elapsed     8369.401 s
  | Time for Kernel                            :        2.050 s           2.043 s
  | RMS delta_rho error from multipole expansion :   0.000000E+00

  Integrating first-order-Hamiltonian matrix: batch-based integration.
  Time summed over all CPUs for integration: real work     2082.946 s, elapsed     2402.200 s
  End CPSCF iteration #     1                  :  max(cpu_time)    wall_clock(cpu1)
  | Time for this iteration                    :       13.150 s          13.127 s
  | first_order_density                        :        0.530 s           0.494 s
  | first_order_potential                      :        4.330 s           4.324 s
  | first_order_H                              :        0.930 s           0.927 s
  | first_order_DM                             :        6.200 s           6.193 s
  | Solution of Sternheimer eqns.              :        0.000 s           0.000 s
------------------------------------------------------------
  Summing up the Hartree potential.
  Time summed over all CPUs for integrate_polarizability: real work        1.036 s, elapsed        2.027 s



===========================================================================
  CPSCF working for j_coord =    2

==========================================================================

  Integrating first-order-Hamiltonian matrix: batch-based integration.
  Time summed over all CPUs for integration: real work     2082.937 s, elapsed     2402.333 s

-------------------------------------------------------------
          Begin CP-self-consistency iteration #    1

  Date     :  20220216, Time     :  003841.728
------------------------------------------------------------

  CPSCF convergence accuracy:
  | Change of first_order_density_matrix     : 0.1048E+02
  Integrating first_order_rho: batch-based integration.
  Time summed over all CPUs for integration: real work     1684.439 s, elapsed     1954.560 s

  Evaluating partitioned Hartree potential by multipole expansion.
  | Analytical far-field extrapolation by fixed multipoles:
  | Hartree multipole sum: apparent total charge =  -0.982763E-03
  Summing up the Hartree potential.
 Sync_vector: start
 Allreduce_part1:    68096.336326561868       us, dim =     13827600  max_len =      1048576  comm_size =         4096
 Allreduce_part2:    811112.61271871626       us, dim =    203957100  max_len =      1048576  comm_size =         4096
 Sync_vector:    1.5420670843450353       s, myid=            0  dim1=     13827600  dim2=    203957100
  Time summed over all CPUs for potential: real work     7997.839 s, elapsed     7999.000 s
  | Time for Kernel                            :        1.960 s           1.953 s
  | RMS delta_rho error from multipole expansion :   0.000000E+00

  Integrating first-order-Hamiltonian matrix: batch-based integration.
  Time summed over all CPUs for integration: real work     2082.826 s, elapsed     2401.573 s
  End CPSCF iteration #     1                  :  max(cpu_time)    wall_clock(cpu1)
  | Time for this iteration                    :       12.880 s          12.863 s
  | first_order_density                        :        0.530 s           0.494 s
  | first_order_potential                      :        4.330 s           4.327 s
  | first_order_H                              :        0.930 s           0.926 s
  | first_order_DM                             :        5.940 s           5.927 s
  | Solution of Sternheimer eqns.              :        0.000 s           0.000 s
------------------------------------------------------------
  Summing up the Hartree potential.
  Time summed over all CPUs for integrate_polarizability: real work        1.037 s, elapsed        1.819 s



===========================================================================
  CPSCF working for j_coord =    3

==========================================================================

  Integrating first-order-Hamiltonian matrix: batch-based integration.
  Time summed over all CPUs for integration: real work     2082.833 s, elapsed     2401.595 s

-------------------------------------------------------------
          Begin CP-self-consistency iteration #    1

  Date     :  20220216, Time     :  003901.754
------------------------------------------------------------

  CPSCF convergence accuracy:
  | Change of first_order_density_matrix     : 0.1571E+02
  Integrating first_order_rho: batch-based integration.
  Time summed over all CPUs for integration: real work     1684.466 s, elapsed     1954.881 s

  Evaluating partitioned Hartree potential by multipole expansion.
  | Analytical far-field extrapolation by fixed multipoles:
  | Hartree multipole sum: apparent total charge =   0.134136E-02
  Summing up the Hartree potential.
 Sync_vector: start
 Allreduce_part1:    73286.629689391702       us, dim =     13827600  max_len =      1048576  comm_size =         4096
 Allreduce_part2:    850563.04599856958       us, dim =    203957100  max_len =      1048576  comm_size =         4096
 Sync_vector:    1.5866790040745400       s, myid=            0  dim1=     13827600  dim2=    203957100
  Time summed over all CPUs for potential: real work     8180.694 s, elapsed     8182.482 s
  | Time for Kernel                            :        2.000 s           1.997 s
  | RMS delta_rho error from multipole expansion :   0.000000E+00

  Integrating first-order-Hamiltonian matrix: batch-based integration.
  Time summed over all CPUs for integration: real work     2082.599 s, elapsed     2401.714 s
  End CPSCF iteration #     1                  :  max(cpu_time)    wall_clock(cpu1)
  | Time for this iteration                    :       13.260 s          13.241 s
  | first_order_density                        :        0.530 s           0.499 s
  | first_order_potential                      :        4.680 s           4.670 s
  | first_order_H                              :        0.930 s           0.929 s
  | first_order_DM                             :        5.960 s           5.952 s
  | Solution of Sternheimer eqns.              :        0.000 s           0.000 s
------------------------------------------------------------
  Summing up the Hartree potential.
  Time summed over all CPUs for integrate_polarizability: real work        1.036 s, elapsed        1.785 s

DFPT for polarizability:--->
   2014.7922343121695        31.008561373675775       -31.812609573797658
   31.008561373676592        1958.1251836567858        47.909076060399741
  -31.812609573798611        47.909076060400366        2004.4675982040374
The mean polarizability is 1992.461672
DFPT polarizability (Bohr^3)        xx        yy        zz        xy        xz        yz
  | Polarizability:--->              2014.792     1958.125     2004.468       31.009      -31.813       47.909

                                               :  max(cpu_time)    wall_clock(cpu1)
  | Time for polarizability calculation        :        0.010 s           0.000 s
===========================================================================

------------------------------------------------------------------------------
  Final output of selected total energy values:

  The following output summarizes some interesting total energy values
  at the end of a run (AFTER all relaxation, molecular dynamics, etc.).

  | Total energy of the DFT / Hartree-Fock s.c.f. calculation      :       -2096086.243863166 eV
  | Final zero-broadening corrected energy (caution - metals only) :       -2096086.243863196 eV
  | For reference only, the value of 1 Hartree used in FHI-aims is :             27.211384500 eV

  Before relying on these values, please be sure to understand exactly which
  total energy value is referred to by a given number. Different objects may
  all carry the same name 'total energy'. Definitions:

  Total energy of the DFT / Hartree-Fock s.c.f. calculation:
  | Note that this energy does not include ANY quantities calculated after the
  | s.c.f. cycle, in particular not ANY RPA, MP2, etc. many-body perturbation terms.

  Final zero-broadening corrected energy:
  | For metallic systems only, a broadening of the occupation numbers at the Fermi
  | level can be extrapolated back to zero broadening by an electron-gas inspired
  | formula. For all systems that are not real metals, this value can be
  | meaningless and should be avoided.

------------------------------------------------------------------------------
  Methods described in the following list of references were used in this FHI-aims run.
  If you publish the results, please make sure to cite these reference if they apply.
  FHI-aims is an academic code, and for our developers (often, Ph.D. students
  and postdocs), scientific credit in the community is essential.
  Thank you for helping us!

  For any use of FHI-aims, please cite:

    Volker Blum, Ralf Gehrke, Felix Hanke, Paula Havu, Ville Havu,
    Xinguo Ren, Karsten Reuter, and Matthias Scheffler
    'Ab initio molecular simulations with numeric atom-centered orbitals'
    Computer Physics Communications 180, 2175-2196 (2009)
    http://dx.doi.org/10.1016/j.cpc.2009.06.022


  The DFPT (perturbation by an electric field) part of the code was used.
  Here is the corresponding reference:

    Honghui Shang, Nathaniel Raimbault, Mariana Rossi,
    Christian Carbogno, Patrick Rinke and Matthias Scheffler,
    'All-Electron, Real-Space Perturbation Theory for Homogeneous
    Electric Fields: Theory, Implementation, and Application within dft'
    New Journal of Physics, 20(7):073040, 2018


  The ELSI infrastructure was used in your run to solve the Kohn-Sham electronic structure.
  Please check out http://elsi-interchange.org to learn more.
  If scalability is important for your project, please acknowledge ELSI by citing:

    V. W-z. Yu, F. Corsetti, A. Garcia, W. P. Huhn, M. Jacquelin, W. Jia,
    B. Lange, L. Lin, J. Lu, W. Mi, A. Seifitokaldani, A. Vazquez-Mayagoitia,
    C. Yang, H. Yang, and V. Blum
    'ELSI: A unified software interface for Kohn-Sham electronic structure solvers'
    Computer Physics Communications 222, 267-285 (2018).
    http://dx.doi.org/10.1016/j.cpc.2017.09.007


  For the real-space grid partitioning and parallelization used in this calculation, please cite:

    Ville Havu, Volker Blum, Paula Havu, and Matthias Scheffler,
    'Efficient O(N) integration for all-electron electronic structure calculation'
    'using numerically tabulated basis functions'
    Journal of Computational Physics 228, 8367-8379 (2009).
    http://dx.doi.org/10.1016/j.jcp.2009.08.008

  Of course, there are many other important community references, e.g., those cited in the
  above references. Our list is limited to references that describe implementations in the
  FHI-aims code. The reason is purely practical (length of this list) - please credit others as well.

 *********************************************************************
   Your are running FHI-aims on many cores. To achieve optimal
   performance for your particular architecture, it might be necessary
   to tune the following compilation and calculation settings:
    * Choosing the right Scalapack and MPI Libraries for your
       architecture is essential. If in doubt, refer to the
       documentation or the sysadmin of your supercomputer.
    * Please review our documentation of Makefile choices, particularly
       for ELPA, in the manual.
    * Some of the following FHI-aims keywords or combination thereof
       may be helpful:
        - FHI-aims setting: collect_eigenvectors .false.
        - FHI-aims setting: use_local_index .true.
        - FHI-aims setting: load_balancing .true.
        - FHI-aims setting: use_alltoall .false.
        - FHI-aims setting: elpa_settings two_step_solver
   Be mindful that the usefulness of these keywords can depend on your
   actual run and on the actual computer you are using. Please check
   their description in the manual and perform specific benchmarks to
   determine what is optimal for your computer. More detailed
   information and examples can be found at:
 http://aimsclub.fhi-berlin.mpg.de/wiki/index.php/Large_scale_settings
 *********************************************************************

------------------------------------------------------------
          Leaving FHI-aims.
          Date     :  20220216, Time     :  003915.003

          Computational steps:
          | Number of self-consistency cycles          :            4
          | Number of SCF (re)initializations          :            1

          Detailed time accounting                     :  max(cpu_time)    wall_clock(cpu1)
          | Total time                                 :      221.520 s         221.375 s
          | Preparation time                           :        0.770 s           0.756 s
          | Boundary condition initalization           :        0.120 s           0.120 s
          | Grid partitioning                          :       13.770 s          13.751 s
          | Preloading free-atom quantities on grid    :        0.030 s           0.026 s
          | Free-atom superposition energy             :        0.710 s           0.705 s
          | Total time for integrations                :        2.500 s           2.488 s
          | Transforming ovlp_3fn to ovlp_3KS          :        0.000 s           0.000 s
          | Total time for solution of K.-S. equations :      120.330 s         120.190 s
          | Total time for density update              :        3.730 s           3.725 s
          | Total time for mixing                      :        0.010 s           0.001 s
          | Total time for Hartree multipole update    :        2.470 s           2.462 s
          | Total time for Hartree multipole sum       :        8.810 s           8.805 s
          | Total time for total energy evaluation     :        0.020 s           0.016 s

          Partial memory accounting:
          | Residual value for overall tracked memory usage across tasks: ************ MB (should be 0.000000 MB)
          |
          | Largest tracked array allocation:
          |   Minimum:      929.436 MB (DFPT_pulay_mixing::initialize_pulay_mixing::X_in_diffs on task    0)
          |   Maximum:      929.436 MB (DFPT_pulay_mixing::initialize_pulay_mixing::X_in_diffs on task    0)
          |   Average:      929.436 MB
          |
          | Because the residual tracked memory usage was not zero, the peak value for overall
          | tracked memory usage was not output, as it is probably incorrect.  This is likely due
          | to a missing aims_deallocate statement in the source code, which should be otherwise
          | harmless.
          |
          Note:  These values currently only include a subset of arrays which are explicitly tracked.
          The "true" memory usage will be greater.

------------------------------------------------------------
[3394385 ## mn110: 28740 ## 2022-02-16/00:39:33] job_finished. use-time: 249.999997 (secs)
