[3383724 ## mn124: 1562 ## 2022-01-30/04:10:22] after query job cnodelist from db, use-time 0.19 secs.
[3383724 ## mn124: 1562 ## 2022-01-30/04:10:22] cnodenum= 256, job-resource-list: 26112-26367[mpemap:0xf][spemap:0x00000000000000000000000000000000FFFFFFFFFFFFFFFFFFFFFFFFFFFFFFFFFFFFFFFFFFFFFFFFFFFFFFFFFFFFFFFF]
[3383724 ## mn124: 1562 ## 2022-01-30/04:10:22] control node is: mn124.
[3383724 ## mn124: 1562 ## 2022-01-30/04:10:22] sub control node number is 1, list: mn205.
[3383724 ## mn124: 1562 ## 2022-01-30/04:10:22] after gather all tasks. use-time: 0.35 secs.
[3383724 ## mn124: 1562 ## 2022-01-30/04:10:22] after put tasks info to db, use-time 0.06 secs.
[3383724 ## mn124: 1562 ## 2022-01-30/04:10:22] start job ok, cnodenum=256, total use-time=0.77 secs!
[3383724 ## vn026112: 24700 ## 2022-01-30/04:10:24] job's first task will run: /usr/bin/swrun -b 1 -K 1324 -T 50 -s 14600 -m 1 -c 0 -t 15 -j 3383724 -F 0xFFFFFFFFFFFFFFFF -i ./aims.191127.scalapack.mpi.x 
------------------------------------------------------------
          Invoking FHI-aims ...
          Version 191127
          Git rev. (modified): 7bcdabb shanghui remove some print.
          Compiled on 2021/12/07 at 19:24:24 on host psn02.qd.sw.

          When using FHI-aims, please cite the following reference:

          Volker Blum, Ralf Gehrke, Felix Hanke, Paula Havu,
          Ville Havu, Xinguo Ren, Karsten Reuter, and Matthias Scheffler,
          'Ab Initio Molecular Simulations with Numeric Atom-Centered Orbitals',
          Computer Physics Communications 180, 2175-2196 (2009)

          For any questions about FHI-aims, please visit the aimsclub website
          with its forums and wiki. Contributions to both the forums and the
          wiki are warmly encouraged - they are for you, and everyone is welcome there.

------------------------------------------------------------



  Date     :  20220130, Time     :  041030.591
  Time zero on CPU 1             :   0.101000000000000E+01  s.
  Internal wall clock time zero  :           412747830.591  s.

  FHI-aims created a unique identifier for this run for later identification
  aims_uuid : 050F7BDF-0E16-48CB-A994-86297B4E4176

  Using     1024 parallel tasks.
  Task        0 on host vn026112 reporting.
  Task        1 on host vn026112 reporting.
  Task        2 on host vn026112 reporting.
  Task        3 on host vn026112 reporting.
  Task        4 on host vn026113 reporting.
  Task        5 on host vn026113 reporting.
  Task        6 on host vn026113 reporting.
  Task        7 on host vn026113 reporting.
  Task        8 on host vn026114 reporting.
  Task        9 on host vn026114 reporting.
  Task       10 on host vn026114 reporting.
  Task       11 on host vn026114 reporting.
  Task       12 on host vn026115 reporting.
  Task       13 on host vn026115 reporting.
  Task       14 on host vn026115 reporting.
  Task       15 on host vn026115 reporting.
  Task       16 on host vn026116 reporting.
  Task       17 on host vn026116 reporting.
  Task       18 on host vn026116 reporting.
  Task       19 on host vn026116 reporting.
  Task       20 on host vn026117 reporting.
  Task       21 on host vn026117 reporting.
  Task       22 on host vn026117 reporting.
  Task       23 on host vn026117 reporting.
  Task       24 on host vn026118 reporting.
  Task       25 on host vn026118 reporting.
  Task       26 on host vn026118 reporting.
  Task       27 on host vn026118 reporting.
  Task       28 on host vn026119 reporting.
  Task       29 on host vn026119 reporting.
  Task       30 on host vn026119 reporting.
  Task       31 on host vn026119 reporting.
  Task       32 on host vn026120 reporting.
  Task       33 on host vn026120 reporting.
  Task       34 on host vn026120 reporting.
  Task       35 on host vn026120 reporting.
  Task       36 on host vn026121 reporting.
  Task       37 on host vn026121 reporting.
  Task       38 on host vn026121 reporting.
  Task       39 on host vn026121 reporting.
  Task       40 on host vn026122 reporting.
  Task       41 on host vn026122 reporting.
  Task       42 on host vn026122 reporting.
  Task       43 on host vn026122 reporting.
  Task       44 on host vn026123 reporting.
  Task       45 on host vn026123 reporting.
  Task       46 on host vn026123 reporting.
  Task       47 on host vn026123 reporting.
  Task       48 on host vn026124 reporting.
  Task       49 on host vn026124 reporting.
  Task       50 on host vn026124 reporting.
  Task       51 on host vn026124 reporting.
  Task       52 on host vn026125 reporting.
  Task       53 on host vn026125 reporting.
  Task       54 on host vn026125 reporting.
  Task       55 on host vn026125 reporting.
  Task       56 on host vn026126 reporting.
  Task       57 on host vn026126 reporting.
  Task       58 on host vn026126 reporting.
  Task       59 on host vn026126 reporting.
  Task       60 on host vn026127 reporting.
  Task       61 on host vn026127 reporting.
  Task       62 on host vn026127 reporting.
  Task       63 on host vn026127 reporting.
  Task       64 on host vn026128 reporting.
  Task       65 on host vn026128 reporting.
  Task       66 on host vn026128 reporting.
  Task       67 on host vn026128 reporting.
  Task       68 on host vn026129 reporting.
  Task       69 on host vn026129 reporting.
  Task       70 on host vn026129 reporting.
  Task       71 on host vn026129 reporting.
  Task       72 on host vn026130 reporting.
  Task       73 on host vn026130 reporting.
  Task       74 on host vn026130 reporting.
  Task       75 on host vn026130 reporting.
  Task       76 on host vn026131 reporting.
  Task       77 on host vn026131 reporting.
  Task       78 on host vn026131 reporting.
  Task       79 on host vn026131 reporting.
  Task       80 on host vn026132 reporting.
  Task       81 on host vn026132 reporting.
  Task       82 on host vn026132 reporting.
  Task       83 on host vn026132 reporting.
  Task       84 on host vn026133 reporting.
  Task       85 on host vn026133 reporting.
  Task       86 on host vn026133 reporting.
  Task       87 on host vn026133 reporting.
  Task       88 on host vn026134 reporting.
  Task       89 on host vn026134 reporting.
  Task       90 on host vn026134 reporting.
  Task       91 on host vn026134 reporting.
  Task       92 on host vn026135 reporting.
  Task       93 on host vn026135 reporting.
  Task       94 on host vn026135 reporting.
  Task       95 on host vn026135 reporting.
  Task       96 on host vn026136 reporting.
  Task       97 on host vn026136 reporting.
  Task       98 on host vn026136 reporting.
  Task       99 on host vn026136 reporting.
  Task      100 on host vn026137 reporting.
  Task      101 on host vn026137 reporting.
  Task      102 on host vn026137 reporting.
  Task      103 on host vn026137 reporting.
  Task      104 on host vn026138 reporting.
  Task      105 on host vn026138 reporting.
  Task      106 on host vn026138 reporting.
  Task      107 on host vn026138 reporting.
  Task      108 on host vn026139 reporting.
  Task      109 on host vn026139 reporting.
  Task      110 on host vn026139 reporting.
  Task      111 on host vn026139 reporting.
  Task      112 on host vn026140 reporting.
  Task      113 on host vn026140 reporting.
  Task      114 on host vn026140 reporting.
  Task      115 on host vn026140 reporting.
  Task      116 on host vn026141 reporting.
  Task      117 on host vn026141 reporting.
  Task      118 on host vn026141 reporting.
  Task      119 on host vn026141 reporting.
  Task      120 on host vn026142 reporting.
  Task      121 on host vn026142 reporting.
  Task      122 on host vn026142 reporting.
  Task      123 on host vn026142 reporting.
  Task      124 on host vn026143 reporting.
  Task      125 on host vn026143 reporting.
  Task      126 on host vn026143 reporting.
  Task      127 on host vn026143 reporting.
  Task      128 on host vn026144 reporting.
  Task      129 on host vn026144 reporting.
  Task      130 on host vn026144 reporting.
  Task      131 on host vn026144 reporting.
  Task      132 on host vn026145 reporting.
  Task      133 on host vn026145 reporting.
  Task      134 on host vn026145 reporting.
  Task      135 on host vn026145 reporting.
  Task      136 on host vn026146 reporting.
  Task      137 on host vn026146 reporting.
  Task      138 on host vn026146 reporting.
  Task      139 on host vn026146 reporting.
  Task      140 on host vn026147 reporting.
  Task      141 on host vn026147 reporting.
  Task      142 on host vn026147 reporting.
  Task      143 on host vn026147 reporting.
  Task      144 on host vn026148 reporting.
  Task      145 on host vn026148 reporting.
  Task      146 on host vn026148 reporting.
  Task      147 on host vn026148 reporting.
  Task      148 on host vn026149 reporting.
  Task      149 on host vn026149 reporting.
  Task      150 on host vn026149 reporting.
  Task      151 on host vn026149 reporting.
  Task      152 on host vn026150 reporting.
  Task      153 on host vn026150 reporting.
  Task      154 on host vn026150 reporting.
  Task      155 on host vn026150 reporting.
  Task      156 on host vn026151 reporting.
  Task      157 on host vn026151 reporting.
  Task      158 on host vn026151 reporting.
  Task      159 on host vn026151 reporting.
  Task      160 on host vn026152 reporting.
  Task      161 on host vn026152 reporting.
  Task      162 on host vn026152 reporting.
  Task      163 on host vn026152 reporting.
  Task      164 on host vn026153 reporting.
  Task      165 on host vn026153 reporting.
  Task      166 on host vn026153 reporting.
  Task      167 on host vn026153 reporting.
  Task      168 on host vn026154 reporting.
  Task      169 on host vn026154 reporting.
  Task      170 on host vn026154 reporting.
  Task      171 on host vn026154 reporting.
  Task      172 on host vn026155 reporting.
  Task      173 on host vn026155 reporting.
  Task      174 on host vn026155 reporting.
  Task      175 on host vn026155 reporting.
  Task      176 on host vn026156 reporting.
  Task      177 on host vn026156 reporting.
  Task      178 on host vn026156 reporting.
  Task      179 on host vn026156 reporting.
  Task      180 on host vn026157 reporting.
  Task      181 on host vn026157 reporting.
  Task      182 on host vn026157 reporting.
  Task      183 on host vn026157 reporting.
  Task      184 on host vn026158 reporting.
  Task      185 on host vn026158 reporting.
  Task      186 on host vn026158 reporting.
  Task      187 on host vn026158 reporting.
  Task      188 on host vn026159 reporting.
  Task      189 on host vn026159 reporting.
  Task      190 on host vn026159 reporting.
  Task      191 on host vn026159 reporting.
  Task      192 on host vn026160 reporting.
  Task      193 on host vn026160 reporting.
  Task      194 on host vn026160 reporting.
  Task      195 on host vn026160 reporting.
  Task      196 on host vn026161 reporting.
  Task      197 on host vn026161 reporting.
  Task      198 on host vn026161 reporting.
  Task      199 on host vn026161 reporting.
  Task      200 on host vn026162 reporting.
  Task      201 on host vn026162 reporting.
  Task      202 on host vn026162 reporting.
  Task      203 on host vn026162 reporting.
  Task      204 on host vn026163 reporting.
  Task      205 on host vn026163 reporting.
  Task      206 on host vn026163 reporting.
  Task      207 on host vn026163 reporting.
  Task      208 on host vn026164 reporting.
  Task      209 on host vn026164 reporting.
  Task      210 on host vn026164 reporting.
  Task      211 on host vn026164 reporting.
  Task      212 on host vn026165 reporting.
  Task      213 on host vn026165 reporting.
  Task      214 on host vn026165 reporting.
  Task      215 on host vn026165 reporting.
  Task      216 on host vn026166 reporting.
  Task      217 on host vn026166 reporting.
  Task      218 on host vn026166 reporting.
  Task      219 on host vn026166 reporting.
  Task      220 on host vn026167 reporting.
  Task      221 on host vn026167 reporting.
  Task      222 on host vn026167 reporting.
  Task      223 on host vn026167 reporting.
  Task      224 on host vn026168 reporting.
  Task      225 on host vn026168 reporting.
  Task      226 on host vn026168 reporting.
  Task      227 on host vn026168 reporting.
  Task      228 on host vn026169 reporting.
  Task      229 on host vn026169 reporting.
  Task      230 on host vn026169 reporting.
  Task      231 on host vn026169 reporting.
  Task      232 on host vn026170 reporting.
  Task      233 on host vn026170 reporting.
  Task      234 on host vn026170 reporting.
  Task      235 on host vn026170 reporting.
  Task      236 on host vn026171 reporting.
  Task      237 on host vn026171 reporting.
  Task      238 on host vn026171 reporting.
  Task      239 on host vn026171 reporting.
  Task      240 on host vn026172 reporting.
  Task      241 on host vn026172 reporting.
  Task      242 on host vn026172 reporting.
  Task      243 on host vn026172 reporting.
  Task      244 on host vn026173 reporting.
  Task      245 on host vn026173 reporting.
  Task      246 on host vn026173 reporting.
  Task      247 on host vn026173 reporting.
  Task      248 on host vn026174 reporting.
  Task      249 on host vn026174 reporting.
  Task      250 on host vn026174 reporting.
  Task      251 on host vn026174 reporting.
  Task      252 on host vn026175 reporting.
  Task      253 on host vn026175 reporting.
  Task      254 on host vn026175 reporting.
  Task      255 on host vn026175 reporting.
  Task      256 on host vn026176 reporting.
  Task      257 on host vn026176 reporting.
  Task      258 on host vn026176 reporting.
  Task      259 on host vn026176 reporting.
  Task      260 on host vn026177 reporting.
  Task      261 on host vn026177 reporting.
  Task      262 on host vn026177 reporting.
  Task      263 on host vn026177 reporting.
  Task      264 on host vn026178 reporting.
  Task      265 on host vn026178 reporting.
  Task      266 on host vn026178 reporting.
  Task      267 on host vn026178 reporting.
  Task      268 on host vn026179 reporting.
  Task      269 on host vn026179 reporting.
  Task      270 on host vn026179 reporting.
  Task      271 on host vn026179 reporting.
  Task      272 on host vn026180 reporting.
  Task      273 on host vn026180 reporting.
  Task      274 on host vn026180 reporting.
  Task      275 on host vn026180 reporting.
  Task      276 on host vn026181 reporting.
  Task      277 on host vn026181 reporting.
  Task      278 on host vn026181 reporting.
  Task      279 on host vn026181 reporting.
  Task      280 on host vn026182 reporting.
  Task      281 on host vn026182 reporting.
  Task      282 on host vn026182 reporting.
  Task      283 on host vn026182 reporting.
  Task      284 on host vn026183 reporting.
  Task      285 on host vn026183 reporting.
  Task      286 on host vn026183 reporting.
  Task      287 on host vn026183 reporting.
  Task      288 on host vn026184 reporting.
  Task      289 on host vn026184 reporting.
  Task      290 on host vn026184 reporting.
  Task      291 on host vn026184 reporting.
  Task      292 on host vn026185 reporting.
  Task      293 on host vn026185 reporting.
  Task      294 on host vn026185 reporting.
  Task      295 on host vn026185 reporting.
  Task      296 on host vn026186 reporting.
  Task      297 on host vn026186 reporting.
  Task      298 on host vn026186 reporting.
  Task      299 on host vn026186 reporting.
  Task      300 on host vn026187 reporting.
  Task      301 on host vn026187 reporting.
  Task      302 on host vn026187 reporting.
  Task      303 on host vn026187 reporting.
  Task      304 on host vn026188 reporting.
  Task      305 on host vn026188 reporting.
  Task      306 on host vn026188 reporting.
  Task      307 on host vn026188 reporting.
  Task      308 on host vn026189 reporting.
  Task      309 on host vn026189 reporting.
  Task      310 on host vn026189 reporting.
  Task      311 on host vn026189 reporting.
  Task      312 on host vn026190 reporting.
  Task      313 on host vn026190 reporting.
  Task      314 on host vn026190 reporting.
  Task      315 on host vn026190 reporting.
  Task      316 on host vn026191 reporting.
  Task      317 on host vn026191 reporting.
  Task      318 on host vn026191 reporting.
  Task      319 on host vn026191 reporting.
  Task      320 on host vn026192 reporting.
  Task      321 on host vn026192 reporting.
  Task      322 on host vn026192 reporting.
  Task      323 on host vn026192 reporting.
  Task      324 on host vn026193 reporting.
  Task      325 on host vn026193 reporting.
  Task      326 on host vn026193 reporting.
  Task      327 on host vn026193 reporting.
  Task      328 on host vn026194 reporting.
  Task      329 on host vn026194 reporting.
  Task      330 on host vn026194 reporting.
  Task      331 on host vn026194 reporting.
  Task      332 on host vn026195 reporting.
  Task      333 on host vn026195 reporting.
  Task      334 on host vn026195 reporting.
  Task      335 on host vn026195 reporting.
  Task      336 on host vn026196 reporting.
  Task      337 on host vn026196 reporting.
  Task      338 on host vn026196 reporting.
  Task      339 on host vn026196 reporting.
  Task      340 on host vn026197 reporting.
  Task      341 on host vn026197 reporting.
  Task      342 on host vn026197 reporting.
  Task      343 on host vn026197 reporting.
  Task      344 on host vn026198 reporting.
  Task      345 on host vn026198 reporting.
  Task      346 on host vn026198 reporting.
  Task      347 on host vn026198 reporting.
  Task      348 on host vn026199 reporting.
  Task      349 on host vn026199 reporting.
  Task      350 on host vn026199 reporting.
  Task      351 on host vn026199 reporting.
  Task      352 on host vn026200 reporting.
  Task      353 on host vn026200 reporting.
  Task      354 on host vn026200 reporting.
  Task      355 on host vn026200 reporting.
  Task      356 on host vn026201 reporting.
  Task      357 on host vn026201 reporting.
  Task      358 on host vn026201 reporting.
  Task      359 on host vn026201 reporting.
  Task      360 on host vn026202 reporting.
  Task      361 on host vn026202 reporting.
  Task      362 on host vn026202 reporting.
  Task      363 on host vn026202 reporting.
  Task      364 on host vn026203 reporting.
  Task      365 on host vn026203 reporting.
  Task      366 on host vn026203 reporting.
  Task      367 on host vn026203 reporting.
  Task      368 on host vn026204 reporting.
  Task      369 on host vn026204 reporting.
  Task      370 on host vn026204 reporting.
  Task      371 on host vn026204 reporting.
  Task      372 on host vn026205 reporting.
  Task      373 on host vn026205 reporting.
  Task      374 on host vn026205 reporting.
  Task      375 on host vn026205 reporting.
  Task      376 on host vn026206 reporting.
  Task      377 on host vn026206 reporting.
  Task      378 on host vn026206 reporting.
  Task      379 on host vn026206 reporting.
  Task      380 on host vn026207 reporting.
  Task      381 on host vn026207 reporting.
  Task      382 on host vn026207 reporting.
  Task      383 on host vn026207 reporting.
  Task      384 on host vn026208 reporting.
  Task      385 on host vn026208 reporting.
  Task      386 on host vn026208 reporting.
  Task      387 on host vn026208 reporting.
  Task      388 on host vn026209 reporting.
  Task      389 on host vn026209 reporting.
  Task      390 on host vn026209 reporting.
  Task      391 on host vn026209 reporting.
  Task      392 on host vn026210 reporting.
  Task      393 on host vn026210 reporting.
  Task      394 on host vn026210 reporting.
  Task      395 on host vn026210 reporting.
  Task      396 on host vn026211 reporting.
  Task      397 on host vn026211 reporting.
  Task      398 on host vn026211 reporting.
  Task      399 on host vn026211 reporting.
  Task      400 on host vn026212 reporting.
  Task      401 on host vn026212 reporting.
  Task      402 on host vn026212 reporting.
  Task      403 on host vn026212 reporting.
  Task      404 on host vn026213 reporting.
  Task      405 on host vn026213 reporting.
  Task      406 on host vn026213 reporting.
  Task      407 on host vn026213 reporting.
  Task      408 on host vn026214 reporting.
  Task      409 on host vn026214 reporting.
  Task      410 on host vn026214 reporting.
  Task      411 on host vn026214 reporting.
  Task      412 on host vn026215 reporting.
  Task      413 on host vn026215 reporting.
  Task      414 on host vn026215 reporting.
  Task      415 on host vn026215 reporting.
  Task      416 on host vn026216 reporting.
  Task      417 on host vn026216 reporting.
  Task      418 on host vn026216 reporting.
  Task      419 on host vn026216 reporting.
  Task      420 on host vn026217 reporting.
  Task      421 on host vn026217 reporting.
  Task      422 on host vn026217 reporting.
  Task      423 on host vn026217 reporting.
  Task      424 on host vn026218 reporting.
  Task      425 on host vn026218 reporting.
  Task      426 on host vn026218 reporting.
  Task      427 on host vn026218 reporting.
  Task      428 on host vn026219 reporting.
  Task      429 on host vn026219 reporting.
  Task      430 on host vn026219 reporting.
  Task      431 on host vn026219 reporting.
  Task      432 on host vn026220 reporting.
  Task      433 on host vn026220 reporting.
  Task      434 on host vn026220 reporting.
  Task      435 on host vn026220 reporting.
  Task      436 on host vn026221 reporting.
  Task      437 on host vn026221 reporting.
  Task      438 on host vn026221 reporting.
  Task      439 on host vn026221 reporting.
  Task      440 on host vn026222 reporting.
  Task      441 on host vn026222 reporting.
  Task      442 on host vn026222 reporting.
  Task      443 on host vn026222 reporting.
  Task      444 on host vn026223 reporting.
  Task      445 on host vn026223 reporting.
  Task      446 on host vn026223 reporting.
  Task      447 on host vn026223 reporting.
  Task      448 on host vn026224 reporting.
  Task      449 on host vn026224 reporting.
  Task      450 on host vn026224 reporting.
  Task      451 on host vn026224 reporting.
  Task      452 on host vn026225 reporting.
  Task      453 on host vn026225 reporting.
  Task      454 on host vn026225 reporting.
  Task      455 on host vn026225 reporting.
  Task      456 on host vn026226 reporting.
  Task      457 on host vn026226 reporting.
  Task      458 on host vn026226 reporting.
  Task      459 on host vn026226 reporting.
  Task      460 on host vn026227 reporting.
  Task      461 on host vn026227 reporting.
  Task      462 on host vn026227 reporting.
  Task      463 on host vn026227 reporting.
  Task      464 on host vn026228 reporting.
  Task      465 on host vn026228 reporting.
  Task      466 on host vn026228 reporting.
  Task      467 on host vn026228 reporting.
  Task      468 on host vn026229 reporting.
  Task      469 on host vn026229 reporting.
  Task      470 on host vn026229 reporting.
  Task      471 on host vn026229 reporting.
  Task      472 on host vn026230 reporting.
  Task      473 on host vn026230 reporting.
  Task      474 on host vn026230 reporting.
  Task      475 on host vn026230 reporting.
  Task      476 on host vn026231 reporting.
  Task      477 on host vn026231 reporting.
  Task      478 on host vn026231 reporting.
  Task      479 on host vn026231 reporting.
  Task      480 on host vn026232 reporting.
  Task      481 on host vn026232 reporting.
  Task      482 on host vn026232 reporting.
  Task      483 on host vn026232 reporting.
  Task      484 on host vn026233 reporting.
  Task      485 on host vn026233 reporting.
  Task      486 on host vn026233 reporting.
  Task      487 on host vn026233 reporting.
  Task      488 on host vn026234 reporting.
  Task      489 on host vn026234 reporting.
  Task      490 on host vn026234 reporting.
  Task      491 on host vn026234 reporting.
  Task      492 on host vn026235 reporting.
  Task      493 on host vn026235 reporting.
  Task      494 on host vn026235 reporting.
  Task      495 on host vn026235 reporting.
  Task      496 on host vn026236 reporting.
  Task      497 on host vn026236 reporting.
  Task      498 on host vn026236 reporting.
  Task      499 on host vn026236 reporting.
  Task      500 on host vn026237 reporting.
  Task      501 on host vn026237 reporting.
  Task      502 on host vn026237 reporting.
  Task      503 on host vn026237 reporting.
  Task      504 on host vn026238 reporting.
  Task      505 on host vn026238 reporting.
  Task      506 on host vn026238 reporting.
  Task      507 on host vn026238 reporting.
  Task      508 on host vn026239 reporting.
  Task      509 on host vn026239 reporting.
  Task      510 on host vn026239 reporting.
  Task      511 on host vn026239 reporting.
  Task      512 on host vn026240 reporting.
  Task      513 on host vn026240 reporting.
  Task      514 on host vn026240 reporting.
  Task      515 on host vn026240 reporting.
  Task      516 on host vn026241 reporting.
  Task      517 on host vn026241 reporting.
  Task      518 on host vn026241 reporting.
  Task      519 on host vn026241 reporting.
  Task      520 on host vn026242 reporting.
  Task      521 on host vn026242 reporting.
  Task      522 on host vn026242 reporting.
  Task      523 on host vn026242 reporting.
  Task      524 on host vn026243 reporting.
  Task      525 on host vn026243 reporting.
  Task      526 on host vn026243 reporting.
  Task      527 on host vn026243 reporting.
  Task      528 on host vn026244 reporting.
  Task      529 on host vn026244 reporting.
  Task      530 on host vn026244 reporting.
  Task      531 on host vn026244 reporting.
  Task      532 on host vn026245 reporting.
  Task      533 on host vn026245 reporting.
  Task      534 on host vn026245 reporting.
  Task      535 on host vn026245 reporting.
  Task      536 on host vn026246 reporting.
  Task      537 on host vn026246 reporting.
  Task      538 on host vn026246 reporting.
  Task      539 on host vn026246 reporting.
  Task      540 on host vn026247 reporting.
  Task      541 on host vn026247 reporting.
  Task      542 on host vn026247 reporting.
  Task      543 on host vn026247 reporting.
  Task      544 on host vn026248 reporting.
  Task      545 on host vn026248 reporting.
  Task      546 on host vn026248 reporting.
  Task      547 on host vn026248 reporting.
  Task      548 on host vn026249 reporting.
  Task      549 on host vn026249 reporting.
  Task      550 on host vn026249 reporting.
  Task      551 on host vn026249 reporting.
  Task      552 on host vn026250 reporting.
  Task      553 on host vn026250 reporting.
  Task      554 on host vn026250 reporting.
  Task      555 on host vn026250 reporting.
  Task      556 on host vn026251 reporting.
  Task      557 on host vn026251 reporting.
  Task      558 on host vn026251 reporting.
  Task      559 on host vn026251 reporting.
  Task      560 on host vn026252 reporting.
  Task      561 on host vn026252 reporting.
  Task      562 on host vn026252 reporting.
  Task      563 on host vn026252 reporting.
  Task      564 on host vn026253 reporting.
  Task      565 on host vn026253 reporting.
  Task      566 on host vn026253 reporting.
  Task      567 on host vn026253 reporting.
  Task      568 on host vn026254 reporting.
  Task      569 on host vn026254 reporting.
  Task      570 on host vn026254 reporting.
  Task      571 on host vn026254 reporting.
  Task      572 on host vn026255 reporting.
  Task      573 on host vn026255 reporting.
  Task      574 on host vn026255 reporting.
  Task      575 on host vn026255 reporting.
  Task      576 on host vn026256 reporting.
  Task      577 on host vn026256 reporting.
  Task      578 on host vn026256 reporting.
  Task      579 on host vn026256 reporting.
  Task      580 on host vn026257 reporting.
  Task      581 on host vn026257 reporting.
  Task      582 on host vn026257 reporting.
  Task      583 on host vn026257 reporting.
  Task      584 on host vn026258 reporting.
  Task      585 on host vn026258 reporting.
  Task      586 on host vn026258 reporting.
  Task      587 on host vn026258 reporting.
  Task      588 on host vn026259 reporting.
  Task      589 on host vn026259 reporting.
  Task      590 on host vn026259 reporting.
  Task      591 on host vn026259 reporting.
  Task      592 on host vn026260 reporting.
  Task      593 on host vn026260 reporting.
  Task      594 on host vn026260 reporting.
  Task      595 on host vn026260 reporting.
  Task      596 on host vn026261 reporting.
  Task      597 on host vn026261 reporting.
  Task      598 on host vn026261 reporting.
  Task      599 on host vn026261 reporting.
  Task      600 on host vn026262 reporting.
  Task      601 on host vn026262 reporting.
  Task      602 on host vn026262 reporting.
  Task      603 on host vn026262 reporting.
  Task      604 on host vn026263 reporting.
  Task      605 on host vn026263 reporting.
  Task      606 on host vn026263 reporting.
  Task      607 on host vn026263 reporting.
  Task      608 on host vn026264 reporting.
  Task      609 on host vn026264 reporting.
  Task      610 on host vn026264 reporting.
  Task      611 on host vn026264 reporting.
  Task      612 on host vn026265 reporting.
  Task      613 on host vn026265 reporting.
  Task      614 on host vn026265 reporting.
  Task      615 on host vn026265 reporting.
  Task      616 on host vn026266 reporting.
  Task      617 on host vn026266 reporting.
  Task      618 on host vn026266 reporting.
  Task      619 on host vn026266 reporting.
  Task      620 on host vn026267 reporting.
  Task      621 on host vn026267 reporting.
  Task      622 on host vn026267 reporting.
  Task      623 on host vn026267 reporting.
  Task      624 on host vn026268 reporting.
  Task      625 on host vn026268 reporting.
  Task      626 on host vn026268 reporting.
  Task      627 on host vn026268 reporting.
  Task      628 on host vn026269 reporting.
  Task      629 on host vn026269 reporting.
  Task      630 on host vn026269 reporting.
  Task      631 on host vn026269 reporting.
  Task      632 on host vn026270 reporting.
  Task      633 on host vn026270 reporting.
  Task      634 on host vn026270 reporting.
  Task      635 on host vn026270 reporting.
  Task      636 on host vn026271 reporting.
  Task      637 on host vn026271 reporting.
  Task      638 on host vn026271 reporting.
  Task      639 on host vn026271 reporting.
  Task      640 on host vn026272 reporting.
  Task      641 on host vn026272 reporting.
  Task      642 on host vn026272 reporting.
  Task      643 on host vn026272 reporting.
  Task      644 on host vn026273 reporting.
  Task      645 on host vn026273 reporting.
  Task      646 on host vn026273 reporting.
  Task      647 on host vn026273 reporting.
  Task      648 on host vn026274 reporting.
  Task      649 on host vn026274 reporting.
  Task      650 on host vn026274 reporting.
  Task      651 on host vn026274 reporting.
  Task      652 on host vn026275 reporting.
  Task      653 on host vn026275 reporting.
  Task      654 on host vn026275 reporting.
  Task      655 on host vn026275 reporting.
  Task      656 on host vn026276 reporting.
  Task      657 on host vn026276 reporting.
  Task      658 on host vn026276 reporting.
  Task      659 on host vn026276 reporting.
  Task      660 on host vn026277 reporting.
  Task      661 on host vn026277 reporting.
  Task      662 on host vn026277 reporting.
  Task      663 on host vn026277 reporting.
  Task      664 on host vn026278 reporting.
  Task      665 on host vn026278 reporting.
  Task      666 on host vn026278 reporting.
  Task      667 on host vn026278 reporting.
  Task      668 on host vn026279 reporting.
  Task      669 on host vn026279 reporting.
  Task      670 on host vn026279 reporting.
  Task      671 on host vn026279 reporting.
  Task      672 on host vn026280 reporting.
  Task      673 on host vn026280 reporting.
  Task      674 on host vn026280 reporting.
  Task      675 on host vn026280 reporting.
  Task      676 on host vn026281 reporting.
  Task      677 on host vn026281 reporting.
  Task      678 on host vn026281 reporting.
  Task      679 on host vn026281 reporting.
  Task      680 on host vn026282 reporting.
  Task      681 on host vn026282 reporting.
  Task      682 on host vn026282 reporting.
  Task      683 on host vn026282 reporting.
  Task      684 on host vn026283 reporting.
  Task      685 on host vn026283 reporting.
  Task      686 on host vn026283 reporting.
  Task      687 on host vn026283 reporting.
  Task      688 on host vn026284 reporting.
  Task      689 on host vn026284 reporting.
  Task      690 on host vn026284 reporting.
  Task      691 on host vn026284 reporting.
  Task      692 on host vn026285 reporting.
  Task      693 on host vn026285 reporting.
  Task      694 on host vn026285 reporting.
  Task      695 on host vn026285 reporting.
  Task      696 on host vn026286 reporting.
  Task      697 on host vn026286 reporting.
  Task      698 on host vn026286 reporting.
  Task      699 on host vn026286 reporting.
  Task      700 on host vn026287 reporting.
  Task      701 on host vn026287 reporting.
  Task      702 on host vn026287 reporting.
  Task      703 on host vn026287 reporting.
  Task      704 on host vn026288 reporting.
  Task      705 on host vn026288 reporting.
  Task      706 on host vn026288 reporting.
  Task      707 on host vn026288 reporting.
  Task      708 on host vn026289 reporting.
  Task      709 on host vn026289 reporting.
  Task      710 on host vn026289 reporting.
  Task      711 on host vn026289 reporting.
  Task      712 on host vn026290 reporting.
  Task      713 on host vn026290 reporting.
  Task      714 on host vn026290 reporting.
  Task      715 on host vn026290 reporting.
  Task      716 on host vn026291 reporting.
  Task      717 on host vn026291 reporting.
  Task      718 on host vn026291 reporting.
  Task      719 on host vn026291 reporting.
  Task      720 on host vn026292 reporting.
  Task      721 on host vn026292 reporting.
  Task      722 on host vn026292 reporting.
  Task      723 on host vn026292 reporting.
  Task      724 on host vn026293 reporting.
  Task      725 on host vn026293 reporting.
  Task      726 on host vn026293 reporting.
  Task      727 on host vn026293 reporting.
  Task      728 on host vn026294 reporting.
  Task      729 on host vn026294 reporting.
  Task      730 on host vn026294 reporting.
  Task      731 on host vn026294 reporting.
  Task      732 on host vn026295 reporting.
  Task      733 on host vn026295 reporting.
  Task      734 on host vn026295 reporting.
  Task      735 on host vn026295 reporting.
  Task      736 on host vn026296 reporting.
  Task      737 on host vn026296 reporting.
  Task      738 on host vn026296 reporting.
  Task      739 on host vn026296 reporting.
  Task      740 on host vn026297 reporting.
  Task      741 on host vn026297 reporting.
  Task      742 on host vn026297 reporting.
  Task      743 on host vn026297 reporting.
  Task      744 on host vn026298 reporting.
  Task      745 on host vn026298 reporting.
  Task      746 on host vn026298 reporting.
  Task      747 on host vn026298 reporting.
  Task      748 on host vn026299 reporting.
  Task      749 on host vn026299 reporting.
  Task      750 on host vn026299 reporting.
  Task      751 on host vn026299 reporting.
  Task      752 on host vn026300 reporting.
  Task      753 on host vn026300 reporting.
  Task      754 on host vn026300 reporting.
  Task      755 on host vn026300 reporting.
  Task      756 on host vn026301 reporting.
  Task      757 on host vn026301 reporting.
  Task      758 on host vn026301 reporting.
  Task      759 on host vn026301 reporting.
  Task      760 on host vn026302 reporting.
  Task      761 on host vn026302 reporting.
  Task      762 on host vn026302 reporting.
  Task      763 on host vn026302 reporting.
  Task      764 on host vn026303 reporting.
  Task      765 on host vn026303 reporting.
  Task      766 on host vn026303 reporting.
  Task      767 on host vn026303 reporting.
  Task      768 on host vn026304 reporting.
  Task      769 on host vn026304 reporting.
  Task      770 on host vn026304 reporting.
  Task      771 on host vn026304 reporting.
  Task      772 on host vn026305 reporting.
  Task      773 on host vn026305 reporting.
  Task      774 on host vn026305 reporting.
  Task      775 on host vn026305 reporting.
  Task      776 on host vn026306 reporting.
  Task      777 on host vn026306 reporting.
  Task      778 on host vn026306 reporting.
  Task      779 on host vn026306 reporting.
  Task      780 on host vn026307 reporting.
  Task      781 on host vn026307 reporting.
  Task      782 on host vn026307 reporting.
  Task      783 on host vn026307 reporting.
  Task      784 on host vn026308 reporting.
  Task      785 on host vn026308 reporting.
  Task      786 on host vn026308 reporting.
  Task      787 on host vn026308 reporting.
  Task      788 on host vn026309 reporting.
  Task      789 on host vn026309 reporting.
  Task      790 on host vn026309 reporting.
  Task      791 on host vn026309 reporting.
  Task      792 on host vn026310 reporting.
  Task      793 on host vn026310 reporting.
  Task      794 on host vn026310 reporting.
  Task      795 on host vn026310 reporting.
  Task      796 on host vn026311 reporting.
  Task      797 on host vn026311 reporting.
  Task      798 on host vn026311 reporting.
  Task      799 on host vn026311 reporting.
  Task      800 on host vn026312 reporting.
  Task      801 on host vn026312 reporting.
  Task      802 on host vn026312 reporting.
  Task      803 on host vn026312 reporting.
  Task      804 on host vn026313 reporting.
  Task      805 on host vn026313 reporting.
  Task      806 on host vn026313 reporting.
  Task      807 on host vn026313 reporting.
  Task      808 on host vn026314 reporting.
  Task      809 on host vn026314 reporting.
  Task      810 on host vn026314 reporting.
  Task      811 on host vn026314 reporting.
  Task      812 on host vn026315 reporting.
  Task      813 on host vn026315 reporting.
  Task      814 on host vn026315 reporting.
  Task      815 on host vn026315 reporting.
  Task      816 on host vn026316 reporting.
  Task      817 on host vn026316 reporting.
  Task      818 on host vn026316 reporting.
  Task      819 on host vn026316 reporting.
  Task      820 on host vn026317 reporting.
  Task      821 on host vn026317 reporting.
  Task      822 on host vn026317 reporting.
  Task      823 on host vn026317 reporting.
  Task      824 on host vn026318 reporting.
  Task      825 on host vn026318 reporting.
  Task      826 on host vn026318 reporting.
  Task      827 on host vn026318 reporting.
  Task      828 on host vn026319 reporting.
  Task      829 on host vn026319 reporting.
  Task      830 on host vn026319 reporting.
  Task      831 on host vn026319 reporting.
  Task      832 on host vn026320 reporting.
  Task      833 on host vn026320 reporting.
  Task      834 on host vn026320 reporting.
  Task      835 on host vn026320 reporting.
  Task      836 on host vn026321 reporting.
  Task      837 on host vn026321 reporting.
  Task      838 on host vn026321 reporting.
  Task      839 on host vn026321 reporting.
  Task      840 on host vn026322 reporting.
  Task      841 on host vn026322 reporting.
  Task      842 on host vn026322 reporting.
  Task      843 on host vn026322 reporting.
  Task      844 on host vn026323 reporting.
  Task      845 on host vn026323 reporting.
  Task      846 on host vn026323 reporting.
  Task      847 on host vn026323 reporting.
  Task      848 on host vn026324 reporting.
  Task      849 on host vn026324 reporting.
  Task      850 on host vn026324 reporting.
  Task      851 on host vn026324 reporting.
  Task      852 on host vn026325 reporting.
  Task      853 on host vn026325 reporting.
  Task      854 on host vn026325 reporting.
  Task      855 on host vn026325 reporting.
  Task      856 on host vn026326 reporting.
  Task      857 on host vn026326 reporting.
  Task      858 on host vn026326 reporting.
  Task      859 on host vn026326 reporting.
  Task      860 on host vn026327 reporting.
  Task      861 on host vn026327 reporting.
  Task      862 on host vn026327 reporting.
  Task      863 on host vn026327 reporting.
  Task      864 on host vn026328 reporting.
  Task      865 on host vn026328 reporting.
  Task      866 on host vn026328 reporting.
  Task      867 on host vn026328 reporting.
  Task      868 on host vn026329 reporting.
  Task      869 on host vn026329 reporting.
  Task      870 on host vn026329 reporting.
  Task      871 on host vn026329 reporting.
  Task      872 on host vn026330 reporting.
  Task      873 on host vn026330 reporting.
  Task      874 on host vn026330 reporting.
  Task      875 on host vn026330 reporting.
  Task      876 on host vn026331 reporting.
  Task      877 on host vn026331 reporting.
  Task      878 on host vn026331 reporting.
  Task      879 on host vn026331 reporting.
  Task      880 on host vn026332 reporting.
  Task      881 on host vn026332 reporting.
  Task      882 on host vn026332 reporting.
  Task      883 on host vn026332 reporting.
  Task      884 on host vn026333 reporting.
  Task      885 on host vn026333 reporting.
  Task      886 on host vn026333 reporting.
  Task      887 on host vn026333 reporting.
  Task      888 on host vn026334 reporting.
  Task      889 on host vn026334 reporting.
  Task      890 on host vn026334 reporting.
  Task      891 on host vn026334 reporting.
  Task      892 on host vn026335 reporting.
  Task      893 on host vn026335 reporting.
  Task      894 on host vn026335 reporting.
  Task      895 on host vn026335 reporting.
  Task      896 on host vn026336 reporting.
  Task      897 on host vn026336 reporting.
  Task      898 on host vn026336 reporting.
  Task      899 on host vn026336 reporting.
  Task      900 on host vn026337 reporting.
  Task      901 on host vn026337 reporting.
  Task      902 on host vn026337 reporting.
  Task      903 on host vn026337 reporting.
  Task      904 on host vn026338 reporting.
  Task      905 on host vn026338 reporting.
  Task      906 on host vn026338 reporting.
  Task      907 on host vn026338 reporting.
  Task      908 on host vn026339 reporting.
  Task      909 on host vn026339 reporting.
  Task      910 on host vn026339 reporting.
  Task      911 on host vn026339 reporting.
  Task      912 on host vn026340 reporting.
  Task      913 on host vn026340 reporting.
  Task      914 on host vn026340 reporting.
  Task      915 on host vn026340 reporting.
  Task      916 on host vn026341 reporting.
  Task      917 on host vn026341 reporting.
  Task      918 on host vn026341 reporting.
  Task      919 on host vn026341 reporting.
  Task      920 on host vn026342 reporting.
  Task      921 on host vn026342 reporting.
  Task      922 on host vn026342 reporting.
  Task      923 on host vn026342 reporting.
  Task      924 on host vn026343 reporting.
  Task      925 on host vn026343 reporting.
  Task      926 on host vn026343 reporting.
  Task      927 on host vn026343 reporting.
  Task      928 on host vn026344 reporting.
  Task      929 on host vn026344 reporting.
  Task      930 on host vn026344 reporting.
  Task      931 on host vn026344 reporting.
  Task      932 on host vn026345 reporting.
  Task      933 on host vn026345 reporting.
  Task      934 on host vn026345 reporting.
  Task      935 on host vn026345 reporting.
  Task      936 on host vn026346 reporting.
  Task      937 on host vn026346 reporting.
  Task      938 on host vn026346 reporting.
  Task      939 on host vn026346 reporting.
  Task      940 on host vn026347 reporting.
  Task      941 on host vn026347 reporting.
  Task      942 on host vn026347 reporting.
  Task      943 on host vn026347 reporting.
  Task      944 on host vn026348 reporting.
  Task      945 on host vn026348 reporting.
  Task      946 on host vn026348 reporting.
  Task      947 on host vn026348 reporting.
  Task      948 on host vn026349 reporting.
  Task      949 on host vn026349 reporting.
  Task      950 on host vn026349 reporting.
  Task      951 on host vn026349 reporting.
  Task      952 on host vn026350 reporting.
  Task      953 on host vn026350 reporting.
  Task      954 on host vn026350 reporting.
  Task      955 on host vn026350 reporting.
  Task      956 on host vn026351 reporting.
  Task      957 on host vn026351 reporting.
  Task      958 on host vn026351 reporting.
  Task      959 on host vn026351 reporting.
  Task      960 on host vn026352 reporting.
  Task      961 on host vn026352 reporting.
  Task      962 on host vn026352 reporting.
  Task      963 on host vn026352 reporting.
  Task      964 on host vn026353 reporting.
  Task      965 on host vn026353 reporting.
  Task      966 on host vn026353 reporting.
  Task      967 on host vn026353 reporting.
  Task      968 on host vn026354 reporting.
  Task      969 on host vn026354 reporting.
  Task      970 on host vn026354 reporting.
  Task      971 on host vn026354 reporting.
  Task      972 on host vn026355 reporting.
  Task      973 on host vn026355 reporting.
  Task      974 on host vn026355 reporting.
  Task      975 on host vn026355 reporting.
  Task      976 on host vn026356 reporting.
  Task      977 on host vn026356 reporting.
  Task      978 on host vn026356 reporting.
  Task      979 on host vn026356 reporting.
  Task      980 on host vn026357 reporting.
  Task      981 on host vn026357 reporting.
  Task      982 on host vn026357 reporting.
  Task      983 on host vn026357 reporting.
  Task      984 on host vn026358 reporting.
  Task      985 on host vn026358 reporting.
  Task      986 on host vn026358 reporting.
  Task      987 on host vn026358 reporting.
  Task      988 on host vn026359 reporting.
  Task      989 on host vn026359 reporting.
  Task      990 on host vn026359 reporting.
  Task      991 on host vn026359 reporting.
  Task      992 on host vn026360 reporting.
  Task      993 on host vn026360 reporting.
  Task      994 on host vn026360 reporting.
  Task      995 on host vn026360 reporting.
  Task      996 on host vn026361 reporting.
  Task      997 on host vn026361 reporting.
  Task      998 on host vn026361 reporting.
  Task      999 on host vn026361 reporting.
  Task     1000 on host vn026362 reporting.
  Task     1001 on host vn026362 reporting.
  Task     1002 on host vn026362 reporting.
  Task     1003 on host vn026362 reporting.
  Task     1004 on host vn026363 reporting.
  Task     1005 on host vn026363 reporting.
  Task     1006 on host vn026363 reporting.
  Task     1007 on host vn026363 reporting.
  Task     1008 on host vn026364 reporting.
  Task     1009 on host vn026364 reporting.
  Task     1010 on host vn026364 reporting.
  Task     1011 on host vn026364 reporting.
  Task     1012 on host vn026365 reporting.
  Task     1013 on host vn026365 reporting.
  Task     1014 on host vn026365 reporting.
  Task     1015 on host vn026365 reporting.
  Task     1016 on host vn026366 reporting.
  Task     1017 on host vn026366 reporting.
  Task     1018 on host vn026366 reporting.
  Task     1019 on host vn026366 reporting.
  Task     1020 on host vn026367 reporting.
  Task     1021 on host vn026367 reporting.
  Task     1022 on host vn026367 reporting.
  Task     1023 on host vn026367 reporting.

  Performing system and environment tests:
  *** Environment variable OMP_NUM_THREADS is not set
  *** For performance reasons you might want to set it to 1
  | Checking for scalapack...
  | Testing pdtran()...
  | All pdtran() tests passed.

  Obtaining array dimensions for all initial allocations:
  
  -----------------------------------------------------------------------
  Parsing control.in (first pass over file, find array dimensions only).
  The contents of control.in will be repeated verbatim below
  unless switched off by setting 'verbatim_writeout .false.' .
  in the first line of control.in .
  -----------------------------------------------------------------------
  
  #########################################################################################
  #
  #  RBD
  #
  #########################################################################################
  #
  #  Physical model
  #
    xc                 pz-lda
    spin               none
    relativistic       none
    charge             2.0
  #  mbd_dev mbd@rsscs  mbd@rsscs_forces k_grid=4:4:4
  #  many_body_dispersion_dev mbd@rsscs  mbd@rsscs_forces k_grid=4:4:4
  #  many_body_dispersion k_grid=4:4:4
  #  many_body_dispersion
  #  mbd_supercell_cutoff 5.0
  #  mbd_eigensolver elpa
  #  check_cpu_consistency
  #many_body_dispersion_pre2019
  
  #
  #  SCF convergence
  #
    occupation_type    gaussian 0.1
    mixer              pulay
      n_max_pulay        8
      charge_mix_param   0.02
    sc_accuracy_rho    1E-2
  #  sc_accuracy_eev    1E-1
    sc_accuracy_etot   1E-2
  #  sc_accuracy_forces 5E-3
  #  sc_iter_limit      1000
    sc_iter_limit      1
  #  adjust_scf always 2
  #
  #  Eigenvalue solution
  #
  #  KS_method          lapack
  #    empty_states       5
  #    basis_threshold    1.e-5
  
  #k_grid 1 1 1
  
  collect_eigenvectors .false.
  
  postprocess_anyway  .true.
  #================ normal==================
  KS_method            elsi
  ##============end normal==================#
  #
  ##============begin ntpoly==================
  #KS_method            elsi
  #elsi_method          dm
  #elsi_solver          ntpoly
  #elsi_ntpoly_method   1       # TC2
  #elsi_ntpoly_tol       1d-2
  #elsi_ntpoly_filter    1d-5
  #elsi_output          debug
  #elsi_ntpoly_filter 1d-9
  #elsi_filter 1d-9
  ##============begin ntpoly==================
  
  
  DFPT polar_reduce_memory
  dfpt_pulay_steps 6
  DFPT_mixing   0.1
  DFPT_sc_accuracy_dm   0.01
  
  
  ################################################################################
  #
  #  FHI-aims code project
  #  VB, Fritz-Haber Institut, 2009
  #
  #  Suggested "light" defaults for H atom (to be pasted into control.in file)
  #  Be sure to double-check any results obtained with these settings for post-processing,
  #  e.g., with the "tight" defaults and larger basis sets.
  #
  ################################################################################
    species        H
  #     global species definitions
      nucleus             1
      mass                1.00794
  #
      l_hartree           4
  #
      cut_pot             3.5  1.5  1.0
      basis_dep_cutoff    1e-4
  #
      radial_base         24 5.0
      radial_multiplier   1
      angular_grids       specified
        division   0.2421   50
        division   0.3822  110
        division   0.4799  194
        division   0.5341  302
  #      division   0.5626  434
  #      division   0.5922  590
  #      division   0.6542  770
  #      division   0.6868 1202
  #      outer_grid  770
        outer_grid  302
  ################################################################################
  #
  #  Definition of "minimal" basis
  #
  ################################################################################
  #     valence basis states
      valence      1  s   1.
  #     ion occupancy
      ion_occ      1  s   0.5
  ################################################################################
  #
  #  Suggested additional basis functions. For production calculations,
  #  uncomment them one after another (the most important basis functions are
  #  listed first).
  #
  #  Basis constructed for dimers: 0.5 A, 0.7 A, 1.0 A, 1.5 A, 2.5 A
  #
  ################################################################################
  #  "First tier" - improvements: -1014.90 meV to -62.69 meV
       hydro 2 s 2.1
       hydro 2 p 3.5
  #  "Second tier" - improvements: -12.89 meV to -1.83 meV
  #     hydro 1 s 0.85
  #     hydro 2 p 3.7
  #     hydro 2 s 1.2
  #     hydro 3 d 7
  #  "Third tier" - improvements: -0.25 meV to -0.12 meV
  #     hydro 4 f 11.2
  #     hydro 3 p 4.8
  #     hydro 4 d 9
  #     hydro 3 s 3.2
  ################################################################################
  #
  #  FHI-aims code project
  #  VB, Fritz-Haber Institut, 2009
  #
  #  Suggested "light" defaults for C atom (to be pasted into control.in file)
  #  Be sure to double-check any results obtained with these settings for post-processing,
  #  e.g., with the "tight" defaults and larger basis sets.
  #
  ################################################################################
    species        C
  #     global species definitions
      nucleus             6
      mass                12.0107
  #
      l_hartree           4
  #
      cut_pot             3.5  1.5  1.0
      basis_dep_cutoff    1e-4
  #
      radial_base         34 5.0
      radial_multiplier   1
      angular_grids specified
        division   0.3326   50
        division   0.5710  110
        division   0.7727  194
        division   0.8772  302
  #      division   0.9334  434
  #      division   0.9625  590
  #      division   0.9924  770
  #      division   1.0230  974
  #      division   1.4589 1202
  #     outer_grid  974
       outer_grid 302
  ################################################################################
  #
  #  Definition of "minimal" basis
  #
  ################################################################################
  #     valence basis states
      valence      2  s   2.
      valence      2  p   2.
  #     ion occupancy
      ion_occ      2  s   1.
      ion_occ      2  p   1.
  ################################################################################
  #
  #  Suggested additional basis functions. For production calculations,
  #  uncomment them one after another (the most important basis functions are
  #  listed first).
  #
  #  Constructed for dimers: 1.0 A, 1.25 A, 1.5 A, 2.0 A, 3.0 A
  #
  ################################################################################
  #  "First tier" - improvements: -1214.57 meV to -155.61 meV
       hydro 2 p 1.7
       hydro 3 d 6
       hydro 2 s 4.9
  #  "Second tier" - improvements: -67.75 meV to -5.23 meV
  #     hydro 4 f 9.8
  #     hydro 3 p 5.2
  #     hydro 3 s 4.3
  #     hydro 5 g 14.4
  #     hydro 3 d 6.2
  #  "Third tier" - improvements: -2.43 meV to -0.60 meV
  #     hydro 2 p 5.6
  #     hydro 2 s 1.4
  #     hydro 3 d 4.9
  #     hydro 4 f 11.2
  #  "Fourth tier" - improvements: -0.39 meV to -0.18 meV
  #     hydro 2 p 2.1
  #     hydro 5 g 16.4
  #     hydro 4 d 13.2
  #     hydro 3 s 13.6
  #     hydro 4 f 17.6
  #  Further basis functions - improvements: -0.08 meV and below
  #     hydro 3 s 2
  #     hydro 3 p 6
  #     hydro 4 d 20
  ################################################################################
  #
  #  FHI-aims code project
  #  VB, Fritz-Haber Institut, 2009
  #
  #  Suggested "light" defaults for N atom (to be pasted into control.in file)
  #  Be sure to double-check any results obtained with these settings for post-processing,
  #  e.g., with the "tight" defaults and larger basis sets.
  #
  ################################################################################
    species        N
  #     global species definitions
      nucleus             7
      mass                14.0067
  #
      l_hartree           4
  #
      cut_pot             3.5  1.5  1.0
      basis_dep_cutoff    1e-4
  #
      radial_base         35 5.0
      radial_multiplier   1
      angular_grids       specified
        division   0.2599   50
        division   0.4601  110
        division   0.5885  194
        division   0.6503  302
  #      division   0.6939  434
  #      division   0.7396  590
  #      division   0.7632  770
  #      division   0.8122  974
  #      division   1.1604 1202
  #      outer_grid  974
        outer_grid  302
  ################################################################################
  #
  #  Definition of "minimal" basis
  #
  ################################################################################
  #     valence basis states
      valence      2  s   2.
      valence      2  p   3.
  #     ion occupancy
      ion_occ      2  s   1.
      ion_occ      2  p   2.
  ################################################################################
  #
  #  Suggested additional basis functions. For production calculations,
  #  uncomment them one after another (the most important basis functions are
  #  listed first).
  #
  #  Constructed for dimers: 1.0 A, 1.1 A, 1.5 A, 2.0 A, 3.0 A
  #
  ################################################################################
  #  "First tier" - improvements: -1193.42 meV to -220.60 meV
       hydro 2 p 1.8
       hydro 3 d 6.8
       hydro 3 s 5.8
  #  "Second tier" - improvements: -80.21 meV to -6.86 meV
  #     hydro 4 f 10.8
  #     hydro 3 p 5.8
  #     hydro 1 s 0.8
  #     hydro 5 g 16
  #     hydro 3 d 4.9
  #  "Third tier" - improvements: -4.29 meV to -0.53 meV
  #     hydro 3 s 16
  #     ionic 2 p auto
  #     hydro 3 d 6.6
  #     hydro 4 f 11.6
  #  "Fourth tier" - improvements: -0.75 meV to -0.25 meV
  #     hydro 2 p 4.5
  #     hydro 2 s 2.4
  #     hydro 5 g 14.4
  #     hydro 4 d 14.4
  #     hydro 4 f 16.8
  # Further basis functions - -0.21 meV and below
  #     hydro 3 p 14.8
  #     hydro 3 s 4.4
  #     hydro 3 d 19.6
  #     hydro 5 g 12.8
  ################################################################################
  #
  #  FHI-aims code project
  #  VB, Fritz-Haber Institut, 2009
  #
  #  Suggested "light" defaults for O atom (to be pasted into control.in file)
  #  Be sure to double-check any results obtained with these settings for post-processing,
  #  e.g., with the "tight" defaults and larger basis sets.
  #
  ################################################################################
    species        O
  #     global species definitions
      nucleus             8
      mass                15.9994
  #
      l_hartree           4
  #
      cut_pot             3.5  1.5  1.0
      basis_dep_cutoff    1e-4
  #
      radial_base         36 5.0
      radial_multiplier   1
       angular_grids specified
        division   0.2659   50
        division   0.4451  110
        division   0.6052  194
        division   0.7543  302
  #      division   0.8014  434
  #      division   0.8507  590
  #      division   0.8762  770
  #      division   0.9023  974
  #      division   1.2339 1202
  #      outer_grid 974
        outer_grid 302
  ################################################################################
  #
  #  Definition of "minimal" basis
  #
  ################################################################################
  #     valence basis states
      valence      2  s   2.
      valence      2  p   4.
  #     ion occupancy
      ion_occ      2  s   1.
      ion_occ      2  p   3.
  ################################################################################
  #
  #  Suggested additional basis functions. For production calculations,
  #  uncomment them one after another (the most important basis functions are
  #  listed first).
  #
  #  Constructed for dimers: 1.0 A, 1.208 A, 1.5 A, 2.0 A, 3.0 A
  #
  ################################################################################
  #  "First tier" - improvements: -699.05 meV to -159.38 meV
       hydro 2 p 1.8
       hydro 3 d 7.6
       hydro 3 s 6.4
  #  "Second tier" - improvements: -49.91 meV to -5.39 meV
  #     hydro 4 f 11.6
  #     hydro 3 p 6.2
  #     hydro 3 d 5.6
  #     hydro 5 g 17.6
  #     hydro 1 s 0.75
  #  "Third tier" - improvements: -2.83 meV to -0.50 meV
  #     ionic 2 p auto
  #     hydro 4 f 10.8
  #     hydro 4 d 4.7
  #     hydro 2 s 6.8
  #  "Fourth tier" - improvements: -0.40 meV to -0.12 meV
  #     hydro 3 p 5
  #     hydro 3 s 3.3
  #     hydro 5 g 15.6
  #     hydro 4 f 17.6
  #     hydro 4 d 14
  # Further basis functions - -0.08 meV and below
  #     hydro 3 s 2.1
  #     hydro 4 d 11.6
  #     hydro 3 p 16
  #     hydro 2 s 17.2
  ################################################################################
  #
  #  FHI-aims code project
  #  VB, Fritz-Haber Institut, 2009
  #
  #  Suggested "light" defaults for S atom (to be pasted into control.in file)
  #  Be sure to double-check any results obtained with these settings for post-processing,
  #  e.g., with the "tight" defaults and larger basis sets.
  #
  ################################################################################
    species        S
  #     global species definitions
      nucleus             16
      mass                32.065
  #
      l_hartree           4
  #
      cut_pot             3.5          1.5  1.0
      basis_dep_cutoff    1e-4
  #
      radial_base         44 5.0
      radial_multiplier   1
      angular_grids       specified
        division   0.4665  110
        division   0.5810  194
        division   0.7139  302
  #      division   0.8274  434
  #      division   0.9105  590
  #      division   1.0975  770
  #      division   1.2028  974
  #      outer_grid  974
        outer_grid  302
  ################################################################################
  #
  #  Definition of "minimal" basis
  #
  ################################################################################
  #     valence basis states
      valence      3  s   2.
      valence      3  p   4.
  #     ion occupancy
      ion_occ      3  s   1.
      ion_occ      3  p   3.
  ################################################################################
  #
  #  Suggested additional basis functions. For production calculations,
  #  uncomment them one after another (the most important basis functions are
  #  listed first).
  #
  #  Constructed for dimers: 1.6 A, 1.9 A, 2.5 A, 3.25 A, 4.0 A
  #
  ################################################################################
  #  "First tier" - improvements: -652.81 meV to -45.53 meV
       ionic 3 d auto
       hydro 2 p 1.8
  #     hydro 4 f 7
       ionic 3 s auto
  #  "Second tier" - improvements: -30.20 meV to -1.74 meV
  #     hydro 4 d 6.2
  #     hydro 5 g 10.8
  #     hydro 4 p 4.9
  #     hydro 5 f 10
  #     hydro 1 s 0.8
  #  "Third tier" - improvements: -1.04 meV to -0.20 meV
  #     hydro 3 d 3.9
  #     hydro 3 d 2.7
  #     hydro 5 g 12
  #     hydro 4 p 10.4
  #     hydro 5 f 12.4
  #     hydro 2 s 1.9
  #  "Fourth tier" - improvements: -0.35 meV to -0.06 meV
  #     hydro 4 d 10.4
  #     hydro 4 p 7.2
  #     hydro 4 d 10
  #     hydro 5 g 19.2
  #     hydro 4 s 12
  
  
  -----------------------------------------------------------------------
  Completed first pass over input file control.in .
  -----------------------------------------------------------------------
  
  
  -----------------------------------------------------------------------
  Parsing geometry.in (first pass over file, find array dimensions only).
  The contents of geometry.in will be repeated verbatim below
  unless switched off by setting 'verbatim_writeout .false.' .
  in the first line of geometry.in .
  -----------------------------------------------------------------------
  
  #
  # RDB_wang_addH.pdb
  # Generated by Open Babel 3.0.0
  #
  atom                 -34.02200       13.72200       48.27700  N
  atom                 -33.84100       13.04700       46.96100  C
  atom                 -34.92800       13.46300       45.96200  C
  atom                 -35.68300       12.60300       45.54700  O
  atom                 -33.83500       11.51800       47.08300  C
  atom                 -33.16200       11.02600       48.34500  C
  atom                 -35.18600       11.05500       47.01000  O
  atom                 -33.16400       13.59800       48.85200  H
  atom                 -34.19400       14.73700       48.12600  H
  atom                 -34.83500       13.30300       48.77300  H
  atom                 -32.86600       13.36900       46.59400  H
  atom                 -33.24600       11.11200       46.26100  H
  atom                 -35.55600       11.26400       46.12700  H
  atom                 -33.19100        9.93700       48.37200  H
  atom                 -32.12500       11.36200       48.35900  H
  atom                 -33.68400       11.42400       49.21500  H
  atom                 -35.01400       14.74700       45.63400  N
  atom                 -35.95500       15.20800       44.58700  C
  atom                 -35.19000       15.13600       43.26600  C
  atom                 -34.13500       15.75900       43.15300  O
  atom                 -36.46400       16.60400       44.90200  C
  atom                 -37.96400       16.65100       44.84100  C
  atom                 -38.56900       15.54500       44.45400  N
  atom                 -38.56600       17.67300       45.13300  O
  atom                 -34.45800       15.48700       46.06300  H
  atom                 -36.84700       14.58400       44.53200  H
  atom                 -36.12600       16.90400       45.89400  H
  atom                 -36.04400       17.31800       44.19300  H
  atom                 -39.58600       15.51700       44.38700  H
  atom                 -38.02000       14.71800       44.22100  H
  atom                 -35.69600       14.39300       42.29500  N
  atom                 -34.85800       14.25200       41.11400  C
  atom                 -35.20400       15.31900       40.07900  C
  atom                 -36.37800       15.58700       39.81100  O
  atom                 -34.98300       12.84400       40.52200  C
  atom                 -34.47100       11.67200       41.38600  C
  atom                 -35.33400       11.32600       42.63000  C
  atom                 -34.20000       10.43200       40.52900  C
  atom                 -36.59800       13.91700       42.29000  H
  atom                 -33.81900       14.39600       41.41100  H
  atom                 -36.03400       12.66400       40.29600  H
  atom                 -34.44500       12.82600       39.57400  H
  atom                 -33.53200       12.03300       41.80700  H
  atom                 -34.88400       10.48900       43.16400  H
  atom                 -35.38500       12.19200       43.29000  H
  atom                 -36.34000       11.05300       42.31100  H
  atom                 -33.84000        9.62200       41.16400  H
  atom                 -35.12100       10.12300       40.03400  H
  atom                 -33.44600       10.66700       39.77800  H
  atom                 -34.17100       15.93400       39.51400  N
  atom                 -34.35500       17.01000       38.54500  C
  atom                 -35.15200       16.54500       37.32800  C
  atom                 -34.79600       15.53600       36.70600  O
  atom                 -33.00000       17.57700       38.13000  C
  atom                 -32.23400       18.55500       39.45800  S
  atom                 -33.19600       15.70600       39.71000  H
  atom                 -34.93500       17.80000       39.02200  H
  atom                 -32.33500       16.75900       37.85200  H
  atom                 -33.12400       18.20200       37.24500  H
  atom                 -36.22900       17.25100       36.96000  N
  atom                 -37.14800       16.81000       35.88800  C
  atom                 -36.57000       16.99500       34.48900  C
  atom                 -37.00700       17.83100       33.69100  O
  atom                 -38.37900       17.68700       36.13700  C
  atom                 -37.82300       18.95100       36.70500  C
  atom                 -36.62800       18.55100       37.53400  C
  atom                 -37.36000       15.74100       35.92000  H
  atom                 -38.92800       17.87300       35.21400  H
  atom                 -39.07300       17.21100       36.83000  H
  atom                 -37.53300       19.64000       35.91100  H
  atom                 -38.56600       19.46300       37.31600  H
  atom                 -35.82500       19.28500       37.46100  H
  atom                 -36.88400       18.46200       38.59000  H
  atom                 -35.57700       16.16900       34.15800  N
  atom                 -34.94900       16.21800       32.84400  C
  atom                 -35.74200       15.44600       31.80200  C
  atom                 -35.62600       15.74300       30.60800  O
  atom                 -33.52100       15.67900       32.91500  C
  atom                 -32.52400       16.68300       33.41200  C
  atom                 -32.51800       17.97500       32.91400  C
  atom                 -31.60300       16.34000       34.38500  C
  atom                 -31.60400       18.90400       33.37200  C
  atom                 -30.68800       17.26400       34.84700  C
  atom                 -30.68800       18.54800       34.34100  C
  atom                 -35.19300       15.46000       34.78300  H
  atom                 -34.92800       17.26400       32.53700  H
  atom                 -33.50300       14.80700       33.56900  H
  atom                 -33.22000       15.34000       31.92400  H
  atom                 -33.23600       18.26000       32.15900  H
  atom                 -31.60000       15.33800       34.78800  H
  atom                 -31.60600       19.90700       32.97200  H
  atom                 -29.97200       16.98200       35.60500  H
  atom                 -29.97300       19.27200       34.70200  H
  atom                 -36.54000       14.46600       32.22900  N
  atom                 -37.35300       13.71000       31.29400  C
  atom                 -38.37500       14.56300       30.56800  C
  atom                 -38.69300       14.30000       29.40500  O
  atom                 -36.63600       14.18500       33.20500  H
  atom                 -36.70300       13.23100       30.56200  H
  atom                 -37.86900       12.91400       31.83100  H
  atom                 -38.89500       15.60200       31.22900  N
  atom                 -39.89000       16.43800       30.57100  C
  atom                 -39.26400       17.35000       29.52800  C
  atom                 -39.97300       17.83100       28.63600  O
  atom                 -40.61200       17.31600       31.59500  C
  atom                 -41.49200       16.60300       32.59400  C
  atom                 -41.25700       17.10700       34.00500  C
  atom                 -40.80000       16.30800       34.85200  O
  atom                 -41.50000       18.30700       34.25300  O
  atom                 -38.65300       15.87300       32.18200  H
  atom                 -40.59100       15.76300       30.08100  H
  atom                 -39.86200       17.88400       32.14600  H
  atom                 -41.22500       18.03700       31.05400  H
  atom                 -42.53900       16.74700       32.32500  H
  atom                 -41.29600       15.53200       32.55200  H
  atom                 -37.95800       17.58300       29.61000  N
  atom                 -37.25200       18.37900       28.61100  C
  atom                 -36.82400       17.52600       27.42900  C
  atom                 -37.11000       17.85600       26.27400  O
  atom                 -36.04500       19.09100       29.25600  C
  atom                 -35.31500       19.93300       28.21600  C
  atom                 -36.49700       19.94300       30.43600  C
  atom                 -37.36500       17.23000       30.36100  H
  atom                 -37.93500       19.13800       28.22900  H
  atom                 -35.35100       18.34000       29.63300  H
  atom                 -34.46500       20.43100       28.68300  H
  atom                 -34.96100       19.29000       27.41000  H
  atom                 -35.99600       20.68100       27.81100  H
  atom                 -35.63300       20.43800       30.87900  H
  atom                 -37.20800       20.69400       30.09100  H
  atom                 -36.97300       19.30700       31.18200  H
  atom                 -36.15600       16.40600       27.71600  N
  atom                 -35.53900       15.59900       26.67000  C
  atom                 -36.54400       14.72200       25.93700  C
  atom                 -36.37700       14.46900       24.73800  O
  atom                 -34.42800       14.73100       27.26400  C
  atom                 -33.16800       15.48700       27.57000  C
  atom                 -32.12800       15.52500       26.65500  C
  atom                 -33.02500       16.16500       28.76800  C
  atom                 -30.96800       16.22500       26.93100  C
  atom                 -31.86800       16.86700       29.05000  C
  atom                 -30.83700       16.89600       28.13000  C
  atom                 -36.03100       16.04200       28.66000  H
  atom                 -35.12000       16.29000       25.93900  H
  atom                 -34.79300       14.26600       28.18000  H
  atom                 -34.19700       13.92500       26.56700  H
  atom                 -32.22500       15.00200       25.71500  H
  atom                 -33.82700       16.14500       29.49100  H
  atom                 -30.16500       16.24700       26.20900  H
  atom                 -31.77000       17.39200       29.98800  H
  atom                 -29.93100       17.44200       28.34900  H
  atom                 -37.58000       14.24700       26.62600  N
  atom                 -38.52100       13.29700       26.04700  C
  atom                 -39.87400       13.92700       25.72300  C
  atom                 -40.87700       13.21200       25.61900  O
  atom                 -38.69400       12.10300       26.98700  C
  atom                 -37.52100       11.13500       26.92300  C
  atom                 -37.29000       10.40400       28.01000  N
  atom                 -36.82900       11.05300       25.90800  O
  atom                 -37.78700       14.50800       27.59000  H
  atom                 -38.10200       12.96000       25.09900  H
  atom                 -38.80800       12.46300       28.00900  H
  atom                 -39.61200       11.57400       26.73100  H
  atom                 -36.51300        9.74300       28.02400  H
  atom                 -37.88900       10.50500       28.82900  H
  atom                 -39.92000       15.24600       25.54200  N
  atom                 -41.16400       15.91600       25.18800  C
  atom                 -41.67200       15.43700       23.83100  C
  atom                 -40.89400       15.12400       22.92400  O
  atom                 -40.96800       17.43200       25.17300  C
  atom                 -39.11500       15.86600       25.63400  H
  atom                 -41.91000       15.66600       25.94200  H
  atom                 -41.90700       17.91800       24.90700  H
  atom                 -40.65300       17.76800       26.16100  H
  atom                 -40.20400       17.69300       24.44100  H
  atom                 -43.00200       15.36100       23.71100  N
  atom                 -43.62500       14.93900       22.45900  C
  atom                 -43.23800       15.85700       21.30400  C
  atom                 -42.84100       15.39400       20.22800  O
  atom                 -45.14600       14.92400       22.62100  C
  atom                 -45.82700       14.57900       21.30000  C
  atom                 -45.51800       13.96500       23.62000  O
  atom                 -43.65900       15.58400       24.45900  H
  atom                 -43.26700       13.93600       22.22500  H
  atom                 -45.47000       15.91800       22.93000  H
  atom                 -46.49300       13.96000       23.72200  H
  atom                 -46.90800       14.57400       21.43800  H
  atom                 -45.56100       15.32200       20.54800  H
  atom                 -45.49900       13.59400       20.96800  H
  atom                 -43.36900       17.16500       21.50800  N
  atom                 -43.06100       18.17400       20.50700  C
  atom                 -42.07100       19.16200       21.10000  C
  atom                 -42.21300       19.56800       22.25700  O
  atom                 -44.34000       18.90100       20.04900  C
  atom                 -44.15500       19.89300       18.91400  C
  atom                 -45.48700       20.54200       18.53700  C
  atom                 -46.57700       19.57100       18.55800  N
  atom                 -47.12000       19.01900       17.47600  C
  atom                 -46.68400       19.34800       16.26800  N
  atom                 -48.10500       18.13800       17.60200  N
  atom                 -43.69800       17.55700       22.39000  H
  atom                 -42.62400       17.69400       19.63100  H
  atom                 -45.07100       18.15400       19.74000  H
  atom                 -44.76400       19.42800       20.90400  H
  atom                 -43.44200       20.66200       19.21000  H
  atom                 -43.73400       19.38500       18.04600  H
  atom                 -45.70700       21.35400       19.23000  H
  atom                 -45.41000       20.98400       17.54300  H
  atom                 -46.94900       19.29600       19.46700  H
  atom                 -45.92900       20.02700       16.16500  H
  atom                 -47.10300       18.92200       15.44100  H
  atom                 -48.44600       17.88400       18.52900  H
  atom                 -48.52100       17.71500       16.77200  H
  atom                 -41.06700       19.53900       20.31900  N
  atom                 -40.15300       20.58600       20.74000  C
  atom                 -40.65000       21.94700       20.25500  C
  atom                 -41.54900       22.05200       19.41700  O
  atom                 -38.73800       20.30500       20.23200  C
  atom                 -37.88500       19.54200       21.20600  C
  atom                 -38.40900       18.47100       21.91700  C
  atom                 -36.56000       19.89400       21.41500  C
  atom                 -37.62200       17.76500       22.81800  C
  atom                 -35.77000       19.19200       22.31400  C
  atom                 -36.30200       18.12600       23.01400  C
  atom                 -40.86800       19.13900       19.40200  H
  atom                 -40.11900       20.60200       21.82900  H
  atom                 -38.80100       19.74300       19.30000  H
  atom                 -38.25000       21.25200       20.00000  H
  atom                 -39.43900       18.18400       21.76800  H
[...]
  Task   938 has      15862 integration points.
  Task   939 has      15864 integration points.
  Task   940 has      15909 integration points.
  Task   941 has      15745 integration points.
  Task   942 has      15777 integration points.
  Task   943 has      15768 integration points.
  Task   944 has      15792 integration points.
  Task   945 has      15775 integration points.
  Task   946 has      15867 integration points.
  Task   947 has      15787 integration points.
  Task   948 has      15887 integration points.
  Task   949 has      15768 integration points.
  Task   950 has      15745 integration points.
  Task   951 has      15773 integration points.
  Task   952 has      15769 integration points.
  Task   953 has      15793 integration points.
  Task   954 has      15824 integration points.
  Task   955 has      15749 integration points.
  Task   956 has      15773 integration points.
  Task   957 has      15792 integration points.
  Task   958 has      15783 integration points.
  Task   959 has      15779 integration points.
  Task   960 has      15779 integration points.
  Task   961 has      15774 integration points.
  Task   962 has      15826 integration points.
  Task   963 has      15864 integration points.
  Task   964 has      15790 integration points.
  Task   965 has      15771 integration points.
  Task   966 has      15863 integration points.
  Task   967 has      15765 integration points.
  Task   968 has      15892 integration points.
  Task   969 has      15822 integration points.
  Task   970 has      15831 integration points.
  Task   971 has      15768 integration points.
  Task   972 has      15861 integration points.
  Task   973 has      15790 integration points.
  Task   974 has      15786 integration points.
  Task   975 has      15777 integration points.
  Task   976 has      15774 integration points.
  Task   977 has      15858 integration points.
  Task   978 has      15748 integration points.
  Task   979 has      15868 integration points.
  Task   980 has      15771 integration points.
  Task   981 has      15789 integration points.
  Task   982 has      15863 integration points.
  Task   983 has      15744 integration points.
  Task   984 has      15822 integration points.
  Task   985 has      15790 integration points.
  Task   986 has      15772 integration points.
  Task   987 has      15896 integration points.
  Task   988 has      15789 integration points.
  Task   989 has      15863 integration points.
  Task   990 has      15860 integration points.
  Task   991 has      15883 integration points.
  Task   992 has      15746 integration points.
  Task   993 has      15771 integration points.
  Task   994 has      15788 integration points.
  Task   995 has      15794 integration points.
  Task   996 has      15744 integration points.
  Task   997 has      15864 integration points.
  Task   998 has      15786 integration points.
  Task   999 has      15750 integration points.
  Task  1000 has      15837 integration points.
  Task  1001 has      15789 integration points.
  Task  1002 has      15751 integration points.
  Task  1003 has      15773 integration points.
  Task  1004 has      15770 integration points.
  Task  1005 has      15858 integration points.
  Task  1006 has      15792 integration points.
  Task  1007 has      15771 integration points.
  Task  1008 has      15747 integration points.
  Task  1009 has      15778 integration points.
  Task  1010 has      15796 integration points.
  Task  1011 has      15858 integration points.
  Task  1012 has      15752 integration points.
  Task  1013 has      15792 integration points.
  Task  1014 has      15857 integration points.
  Task  1015 has      15792 integration points.
  Task  1016 has      15770 integration points.
  Task  1017 has      15757 integration points.
  Task  1018 has      15791 integration points.
  Task  1019 has      15744 integration points.
  Task  1020 has      15791 integration points.
  Task  1021 has      15748 integration points.
  Task  1022 has      15865 integration points.
  Task  1023 has      15863 integration points.
  | Analytical far-field extrapolation by fixed multipoles:
  | Hartree multipole sum: apparent total charge =   0.135827E-02
  Summing up the Hartree potential.
 Sync_vector: start
 Allreduce_part1:    247934.29230339825       us, dim =     13827600  max_len =      1048576  comm_size =         1024
 Allreduce_part2:    3254621.2384477258       us, dim =    203957100  max_len =      1048576  comm_size =         1024
 Sync_vector:    4.1893325287383050       s, myid=            0  dim1=     13827600  dim2=    203957100
  Time summed over all CPUs for potential: real work     5306.759 s, elapsed     5306.868 s
  | Time for Kernel                            :        5.190 s           5.182 s
  | RMS delta_rho error from multipole expansion :   0.000000E+00

  Integrating first-order-Hamiltonian matrix: batch-based integration.
  Time summed over all CPUs for integration: real work     2116.279 s, elapsed     2284.385 s
  End CPSCF iteration #     1                  :  max(cpu_time)    wall_clock(cpu1)
  | Time for this iteration                    :       22.280 s          22.276 s
  | first_order_density                        :        1.800 s           1.760 s
  | first_order_potential                      :        6.920 s           6.914 s
  | first_order_H                              :        2.780 s           2.778 s
  | first_order_DM                             :        9.630 s           9.623 s
  | Solution of Sternheimer eqns.              :        0.000 s           0.000 s
------------------------------------------------------------
  Summing up the Hartree potential.
  Time summed over all CPUs for integrate_polarizability: real work        1.018 s, elapsed        1.334 s



===========================================================================
  CPSCF working for j_coord =    2

==========================================================================

  Integrating first-order-Hamiltonian matrix: batch-based integration.
  Time summed over all CPUs for integration: real work     2108.170 s, elapsed     2274.397 s

-------------------------------------------------------------
          Begin CP-self-consistency iteration #    1

  Date     :  20220130, Time     :  041640.383
------------------------------------------------------------

  CPSCF convergence accuracy:
  | Change of first_order_density_matrix     : 0.1048E+02
  Integrating first_order_rho: batch-based integration.
  Time summed over all CPUs for integration: real work     1684.063 s, elapsed     1776.434 s

  Evaluating partitioned Hartree potential by multipole expansion.
  | Analytical far-field extrapolation by fixed multipoles:
  | Hartree multipole sum: apparent total charge =  -0.982763E-03
  Summing up the Hartree potential.
 Sync_vector: start
 Allreduce_part1:    244492.67773889005       us, dim =     13827600  max_len =      1048576  comm_size =         1024
 Allreduce_part2:    3262811.2358506769       us, dim =    203957100  max_len =      1048576  comm_size =         1024
 Sync_vector:    4.1928127349819988       s, myid=            0  dim1=     13827600  dim2=    203957100
  Time summed over all CPUs for potential: real work     5307.689 s, elapsed     5307.841 s
  | Time for Kernel                            :        5.180 s           5.183 s
  | RMS delta_rho error from multipole expansion :   0.000000E+00

  Integrating first-order-Hamiltonian matrix: batch-based integration.
  Time summed over all CPUs for integration: real work     2115.425 s, elapsed     2281.445 s
  End CPSCF iteration #     1                  :  max(cpu_time)    wall_clock(cpu1)
  | Time for this iteration                    :       22.380 s          22.376 s
  | first_order_density                        :        1.800 s           1.757 s
  | first_order_potential                      :        7.050 s           7.046 s
  | first_order_H                              :        2.790 s           2.782 s
  | first_order_DM                             :        9.590 s           9.588 s
  | Solution of Sternheimer eqns.              :        0.000 s           0.000 s
------------------------------------------------------------
  Summing up the Hartree potential.
  Time summed over all CPUs for integrate_polarizability: real work        1.018 s, elapsed        1.460 s



===========================================================================
  CPSCF working for j_coord =    3

==========================================================================

  Integrating first-order-Hamiltonian matrix: batch-based integration.
  Time summed over all CPUs for integration: real work     2107.505 s, elapsed     2273.037 s

-------------------------------------------------------------
          Begin CP-self-consistency iteration #    1

  Date     :  20220130, Time     :  041715.265
------------------------------------------------------------

  CPSCF convergence accuracy:
  | Change of first_order_density_matrix     : 0.1571E+02
  Integrating first_order_rho: batch-based integration.
  Time summed over all CPUs for integration: real work     1684.181 s, elapsed     1778.834 s

  Evaluating partitioned Hartree potential by multipole expansion.
  | Analytical far-field extrapolation by fixed multipoles:
  | Hartree multipole sum: apparent total charge =   0.134136E-02
  Summing up the Hartree potential.
 Sync_vector: start
 Allreduce_part1:    246928.57568152249       us, dim =     13827600  max_len =      1048576  comm_size =         1024
 Allreduce_part2:    3238678.1163513660       us, dim =    203957100  max_len =      1048576  comm_size =         1024
 Sync_vector:    4.1710586838889867       s, myid=            0  dim1=     13827600  dim2=    203957100
  Time summed over all CPUs for potential: real work     5285.482 s, elapsed     5285.638 s
  | Time for Kernel                            :        5.160 s           5.162 s
  | RMS delta_rho error from multipole expansion :   0.000000E+00

  Integrating first-order-Hamiltonian matrix: batch-based integration.
  Time summed over all CPUs for integration: real work     2115.539 s, elapsed     2281.555 s
  End CPSCF iteration #     1                  :  max(cpu_time)    wall_clock(cpu1)
  | Time for this iteration                    :       22.250 s          22.248 s
  | first_order_density                        :        1.800 s           1.760 s
  | first_order_potential                      :        6.920 s           6.920 s
  | first_order_H                              :        2.780 s           2.780 s
  | first_order_DM                             :        9.590 s           9.587 s
  | Solution of Sternheimer eqns.              :        0.000 s           0.000 s
------------------------------------------------------------
  Summing up the Hartree potential.
  Time summed over all CPUs for integrate_polarizability: real work        1.019 s, elapsed        1.291 s

DFPT for polarizability:--->
   2014.7922343121802        31.008561373677409       -31.812609573796067
   31.008561373675832        1958.1251836567933        47.909076060400274
  -31.812609573796209        47.909076060400942        2004.4675982040433
The mean polarizability is 1992.461672
DFPT polarizability (Bohr^3)        xx        yy        zz        xy        xz        yz
  | Polarizability:--->              2014.792     1958.125     2004.468       31.009      -31.813       47.909

                                               :  max(cpu_time)    wall_clock(cpu1)
  | Time for polarizability calculation        :        0.010 s           0.001 s
===========================================================================

------------------------------------------------------------------------------
  Final output of selected total energy values:

  The following output summarizes some interesting total energy values
  at the end of a run (AFTER all relaxation, molecular dynamics, etc.).

  | Total energy of the DFT / Hartree-Fock s.c.f. calculation      :       -2096086.243863172 eV
  | Final zero-broadening corrected energy (caution - metals only) :       -2096086.243863201 eV
  | For reference only, the value of 1 Hartree used in FHI-aims is :             27.211384500 eV

  Before relying on these values, please be sure to understand exactly which
  total energy value is referred to by a given number. Different objects may
  all carry the same name 'total energy'. Definitions:

  Total energy of the DFT / Hartree-Fock s.c.f. calculation:
  | Note that this energy does not include ANY quantities calculated after the
  | s.c.f. cycle, in particular not ANY RPA, MP2, etc. many-body perturbation terms.

  Final zero-broadening corrected energy:
  | For metallic systems only, a broadening of the occupation numbers at the Fermi
  | level can be extrapolated back to zero broadening by an electron-gas inspired
  | formula. For all systems that are not real metals, this value can be
  | meaningless and should be avoided.

------------------------------------------------------------------------------
  Methods described in the following list of references were used in this FHI-aims run.
  If you publish the results, please make sure to cite these reference if they apply.
  FHI-aims is an academic code, and for our developers (often, Ph.D. students
  and postdocs), scientific credit in the community is essential.
  Thank you for helping us!

  For any use of FHI-aims, please cite:

    Volker Blum, Ralf Gehrke, Felix Hanke, Paula Havu, Ville Havu,
    Xinguo Ren, Karsten Reuter, and Matthias Scheffler
    'Ab initio molecular simulations with numeric atom-centered orbitals'
    Computer Physics Communications 180, 2175-2196 (2009)
    http://dx.doi.org/10.1016/j.cpc.2009.06.022


  The DFPT (perturbation by an electric field) part of the code was used.
  Here is the corresponding reference:

    Honghui Shang, Nathaniel Raimbault, Mariana Rossi,
    Christian Carbogno, Patrick Rinke and Matthias Scheffler,
    'All-Electron, Real-Space Perturbation Theory for Homogeneous
    Electric Fields: Theory, Implementation, and Application within dft'
    New Journal of Physics, 20(7):073040, 2018


  The ELSI infrastructure was used in your run to solve the Kohn-Sham electronic structure.
  Please check out http://elsi-interchange.org to learn more.
  If scalability is important for your project, please acknowledge ELSI by citing:

    V. W-z. Yu, F. Corsetti, A. Garcia, W. P. Huhn, M. Jacquelin, W. Jia,
    B. Lange, L. Lin, J. Lu, W. Mi, A. Seifitokaldani, A. Vazquez-Mayagoitia,
    C. Yang, H. Yang, and V. Blum
    'ELSI: A unified software interface for Kohn-Sham electronic structure solvers'
    Computer Physics Communications 222, 267-285 (2018).
    http://dx.doi.org/10.1016/j.cpc.2017.09.007


  For the real-space grid partitioning and parallelization used in this calculation, please cite:

    Ville Havu, Volker Blum, Paula Havu, and Matthias Scheffler,
    'Efficient O(N) integration for all-electron electronic structure calculation'
    'using numerically tabulated basis functions'
    Journal of Computational Physics 228, 8367-8379 (2009).
    http://dx.doi.org/10.1016/j.jcp.2009.08.008

  Of course, there are many other important community references, e.g., those cited in the
  above references. Our list is limited to references that describe implementations in the
  FHI-aims code. The reason is purely practical (length of this list) - please credit others as well.

 *********************************************************************
   Your are running FHI-aims on many cores. To achieve optimal
   performance for your particular architecture, it might be necessary
   to tune the following compilation and calculation settings:
    * Choosing the right Scalapack and MPI Libraries for your
       architecture is essential. If in doubt, refer to the
       documentation or the sysadmin of your supercomputer.
    * Please review our documentation of Makefile choices, particularly
       for ELPA, in the manual.
    * Some of the following FHI-aims keywords or combination thereof
       may be helpful:
        - FHI-aims setting: collect_eigenvectors .false.
        - FHI-aims setting: use_local_index .true.
        - FHI-aims setting: load_balancing .true.
        - FHI-aims setting: use_alltoall .false.
        - FHI-aims setting: elpa_settings two_step_solver
   Be mindful that the usefulness of these keywords can depend on your
   actual run and on the actual computer you are using. Please check
   their description in the manual and perform specific benchmarks to
   determine what is optimal for your computer. More detailed
   information and examples can be found at:
 http://aimsclub.fhi-berlin.mpg.de/wiki/index.php/Large_scale_settings
 *********************************************************************

------------------------------------------------------------
          Leaving FHI-aims.
          Date     :  20220130, Time     :  041737.520

          Computational steps:
          | Number of self-consistency cycles          :            4
          | Number of SCF (re)initializations          :            1

          Detailed time accounting                     :  max(cpu_time)    wall_clock(cpu1)
          | Total time                                 :      426.770 s         426.929 s
          | Preparation time                           :        0.760 s           0.756 s
          | Boundary condition initalization           :        0.120 s           0.120 s
          | Grid partitioning                          :       15.450 s          15.446 s
          | Preloading free-atom quantities on grid    :        0.030 s           0.026 s
          | Free-atom superposition energy             :        2.690 s           2.689 s
          | Total time for integrations                :        7.020 s           7.013 s
          | Transforming ovlp_3fn to ovlp_3KS          :        0.000 s           0.000 s
          | Total time for solution of K.-S. equations :      244.080 s         244.085 s
          | Total time for density update              :        7.830 s           7.822 s
          | Total time for mixing                      :        0.010 s           0.002 s
          | Total time for Hartree multipole update    :        1.930 s           1.922 s
          | Total time for Hartree multipole sum       :       27.580 s          27.580 s
          | Total time for total energy evaluation     :        0.020 s           0.016 s

          Partial memory accounting:
          | Residual value for overall tracked memory usage across tasks: ************ MB (should be 0.000000 MB)
          |
          | Largest tracked array allocation:
          |   Minimum:      929.436 MB (DFPT_pulay_mixing::initialize_pulay_mixing::X_in_diffs on task    0)
          |   Maximum:      929.436 MB (DFPT_pulay_mixing::initialize_pulay_mixing::X_in_diffs on task    0)
          |   Average:      929.436 MB
          |
          | Because the residual tracked memory usage was not zero, the peak value for overall
          | tracked memory usage was not output, as it is probably incorrect.  This is likely due
          | to a missing aims_deallocate statement in the source code, which should be otherwise
          | harmless.
          |
          Note:  These values currently only include a subset of arrays which are explicitly tracked.
          The "true" memory usage will be greater.

------------------------------------------------------------
[3383724 ## mn124: 1562 ## 2022-01-30/04:17:53] job_finished. use-time: 450.195622 (secs)
